# ODT 1.0
# Table Start
# Title: mmArchive Data Table, Wed Jun 16 18:43:00 EDT 2010
# Columns: {Oxs_CGEvolve::Max mxHxm} {Oxs_CGEvolve::Total energy} {Oxs_CGEvolve::Delta E} {Oxs_CGEvolve::Bracket count} {Oxs_CGEvolve::Line min count} {Oxs_CGEvolve::Cycle count} {Oxs_CGEvolve::Cycle sub count} {Oxs_CGEvolve::Energy calc count} Oxs_CubicAnisotropy::Energy Oxs_UniformExchange::Energy {Oxs_UniformExchange::Max Spin Ang} {Oxs_UniformExchange::Stage Max Spin Ang} {Oxs_UniformExchange::Run Max Spin Ang} Oxs_UZeeman::Energy  Oxs_UZeeman::B       Oxs_UZeeman::Bx      Oxs_UZeeman::By      Oxs_UZeeman::Bz      Oxs_Demag::Energy    Oxs_MinDriver::Iteration {Oxs_MinDriver::Stage iteration} Oxs_MinDriver::Stage Oxs_MinDriver::mx    Oxs_MinDriver::my    Oxs_MinDriver::mz   
# Units:              A/m                         J                          J                         {}                             {}                           {}                            {}                               {}                              J                           J                              deg                                    deg                                      deg                            J                 mT                   mT                   mT                   mT                     J                       {}                           {}                         {}                 {}                   {}                   {}           
              794588.21803791996          4.1830221976297725e-17       4.1830221976297725e-17        0                              0                            1                             1                                1                              0                           1.44e-17                        90                                     90                                       90                             0                    0                    0                    0                    0                    2.7430221976297724e-17    0                            0                          0                    0                    0                    0.10000000000000001
              794030.14769417932          4.181003860310114e-17      -2.0183373196585263e-20        1                              0                            1                             1                                2                             -9.9255168672139395e-26         1.4380687113412795e-17             89.936509378187054                     90                                       90                             0                    0                    0                    0                    0                    2.7429351588943514e-17    1                            1                          0                    1.0018028073766061e-23 -1.4210854715202003e-21  0.10001017137496485
              790067.97732067632          4.1669128007489471e-17      -1.4091059561166784e-19        2                              0                            1                             1                                3                             -6.351969572181329e-24         1.4245955872794628e-17             89.491650991600906                     90                                       90                             0                    0                    0                    0                    0                    2.7423178486664417e-17    2                            2                          0                    3.2395960913866872e-23  1.7763568394002504e-22  0.10008051606659345
              796974.44389259862          4.1669128007489471e-17       0                          2                              0                            2                             2                                4                             -6.351969572181329e-24         1.4245955872794628e-17             89.491650991600906                     89.491650991600906                       90                            -1.2168203240933836e-39  50.002499937503131   50.000000000000007   0.5                  0                    2.7423178486664417e-17    3                            0                          1                    3.2395960913866872e-23  1.7763568394002504e-22  0.10008051606659345
              796430.73718729091          4.1648518585164597e-17      -2.0609422324872567e-20        3                              0                            2                             0                                5                             -8.0278394360398531e-24         1.422693849145455e-17             89.42862304195107                      89.491650991600906                       90                            -6.9708763505370215e-22  50.002499937503131   50.000000000000007   0.5                  0                    2.7422285209184538e-17    4                            1                          1                    4.3567541516632057e-05  4.356742243236913e-08  0.10009037980059375
              792570.75528397178          4.1504617906642362e-17      -1.4390067852223819e-19        4                              0                            2                             0                                6                             -2.5414821655236714e-23         1.4094269197034641e-17             88.987105107564048                     89.491650991600906                       90                            -5.5766878521580372e-21  50.002499937503131   50.000000000000007   0.5                  0                    2.7415950812281535e-17    5                            2                          1                    0.00034853950546837048  3.4852915068096864e-07  0.10015857405102424
              801514.14603505353          4.14990412187902e-17      -5.5766878521580379e-21        4                              0                            3                             1                                7                             -2.5414821655236714e-23         1.4094269197034641e-17             88.987105107564048                     88.987105107564048                       90                            -1.1153375704316074e-20  100.00499987500626   100.00000000000001   1                    0                    2.7415950812281535e-17    6                            0                          2                    0.00034853950546837048  3.4852915068096864e-07  0.10015857405102424
              800991.45533562638          4.1476672860212926e-17      -2.2368358577276429e-20        5                              0                            3                             0                                8                             -2.8734334810541831e-23         1.4075593107993118e-17             88.924746365657327                     88.987105107564048                       90                            -1.3927733441419046e-20  100.00499987500626   100.00000000000001   1                    0                    2.7415036219996037e-17    7                            1                          2                    0.00043523731723279683  4.3528115483350919e-07  0.10016810202156376
              797280.48444188409          4.132044388646056e-17      -1.5622897375236732e-19        6                              0                            3                             0                                9                             -5.8070083637964849e-23         1.3945301036156589e-17             88.488001176605778                     88.987105107564048                       90                            -3.3348156604324006e-20  100.00499987500626   100.00000000000001   1                    0                    2.740854907699193e-17    8                            2                          2                    0.001042119468665319  1.0425219806011544e-06  0.1002339429645433 
              781423.75996165443          4.1353791876261368e-17       3.3347989800807114e-20        6                              0                            4                             1                                10                            -5.8070083637964849e-23         1.3945301036156589e-17             88.488001176605778                     88.488001176605778                       90                            -1.6680351689618531e-25  0.5                  0                    0.5                  0                    2.740854907699193e-17    9                            0                          3                    0.001042119468665319  1.0425219806011544e-06  0.1002339429645433 
              780833.17907104676          4.133390671666709e-17      -1.9885159594278628e-20        7                              0                            4                             0                                11                            -6.2891520398164282e-23         1.3926384046870031e-17             88.424224443656584                     88.488001176605778                       90                            -1.7396674242395911e-25  0.5                  0                    0.5                  0                    2.7407585735284198e-17    10                           1                          3                    0.0010422916100750314  1.0872921401497434e-06  0.10024343494603204
              776643.95101598569          4.1195089176888171e-17      -1.3881753977891737e-19        8                              0                            4                             0                                12                            -1.0219519063170873e-22         1.3794432502823834e-17             87.977365766938178                     88.488001176605778                       90                            -2.2410596190468324e-25  0.5                  0                    0.5                  0                    2.740075909336093e-17    11                           2                          3                    0.0010434949647827316  1.4006622619042725e-06  0.10030900531381157
              791504.99204017897          4.1228481239867177e-17       3.3392062979009322e-20        8                              0                            5                             1                                13                            -1.0219519063170873e-22         1.3794432502823834e-17             87.977365766938178                     87.977365766938178                       90                             3.3391838873047419e-20  100.00000000000001  -100.00000000000001   0                    0                    2.740075909336093e-17    12                           0                          4                    0.0010434949647827316  1.4006622619042725e-06  0.10030900531381157
              790961.76255607756          4.1206264120537313e-17      -2.2217119329864411e-20        9                              0                            5                             0                                14                            -1.0816914027857532e-22         1.377599875565729e-17             87.914514888630592                     87.977365766938178                       90                             3.0589706399183359e-20  100.00000000000001  -100.00000000000001   0                    0                    2.7399783827621119e-17    13                           1                          4                    0.00095592832497447982  1.4011001901627867e-06  0.10031809618372796
              787107.52131215413          4.1051098352207412e-17      -1.5516576832990135e-19        10                             0                            5                             0                                15                            -1.5610482421599932e-22         1.3647409765548524e-17             87.473932555595781                     87.977365766938178                       90                             1.0974797330032864e-20  100.00000000000001  -100.00000000000001   0                    0                    2.7392869894153073e-17    14                           2                          4                    0.00034296241656352693  1.4041542561502979e-06  0.10038086344260579
              771387.8735019922           4.1040123554877381e-17      -1.0974797330032863e-20        10                             0                            6                             1                                16                            -1.5610482421599932e-22         1.3647409765548524e-17             87.473932555595781                     87.473932555595781                       90                             0                    0                    0                    0                    0                    2.7392869894153073e-17    15                           0                          5                    0.00034296241656352693  1.4041542561502979e-06  0.10038086344260579
              770775.55524428887          4.1020410242182522e-17      -1.9713312694860009e-20        11                             0                            6                             0                                17                            -1.6408266403190022e-22         1.3628734866788267e-17             87.409777023698709                     87.473932555595781                       90                             0                    0                    0                    0                    0                    2.7391839458058285e-17    16                           1                          5                    0.0003430210093637377  1.4045966276992626e-06  0.10038988736409009
              766434.55053864734          4.0882800702351848e-17      -1.3760953983067473e-19        12                             0                            6                             0                                18                            -2.2548247649967254e-22         1.3498485187226609e-17             86.960265092360572                     87.473932555595781                       90                             0                    0                    0                    0                    0                    2.7384540997601737e-17    17                           2                          5                    0.00034343059567410822  1.4076817155041019e-06  0.10045216643507454
              786082.83511242282          4.088278944089812e-17      -1.1261453724032277e-23        12                             0                            7                             1                                19                            -2.2548247649967254e-22         1.3498485187226609e-17             86.960265092360572                     86.960265092360572                       90                            -1.1261453724032841e-23  25.000000000000004   0                    25.000000000000004   0                    2.7384540997601737e-17    18                           0                          6                    0.00034343059567410822  1.4076817155041019e-06  0.10045216643507454
              785472.23487906111          4.0863640160054415e-17      -1.914928084370707e-20        13                             0                            7                             0                                20                            -2.348128129902317e-22         1.348040159409827e-17             86.898799748726645                     86.960265092360572                       90                            -2.893161483612363e-23  25.000000000000004   0                    25.000000000000004   0                    2.7383502310383971e-17    19                           1                          6                    0.00034348810538709302  3.6164518545154518e-06  0.10046072378893577
              781143.94381382898          4.0729962015634097e-17      -1.3367814442031677e-19        14                             0                            7                             0                                21                            -3.0540598061255501e-22         1.3354270895907958e-17             86.468138447690734                     86.960265092360572                       90                            -1.5261672065960684e-22  25.000000000000004   0                    25.000000000000004   0                    2.7376149142427412e-17    20                           2                          6                    0.00034389013225321897  1.9077090082450855e-05  0.10051977262290887
# Table End
