# ODT 1.0
# Table Start
# Title: mmArchive Data Table, Wed Jun 16 18:43:12 EDT 2010
# Columns: {Oxs_CGEvolve:evolve:Max mxHxm} {Oxs_CGEvolve:evolve:Total energy} {Oxs_CGEvolve:evolve:Delta E} {Oxs_CGEvolve:evolve:Bracket count} {Oxs_CGEvolve:evolve:Line min count} {Oxs_CGEvolve:evolve:Cycle count} {Oxs_CGEvolve:evolve:Cycle sub count} {Oxs_CGEvolve:evolve:Energy calc count} Oxs_UniformExchange::Energy {Oxs_UniformExchange::Max Spin Ang} {Oxs_UniformExchange::Stage Max Spin Ang} {Oxs_UniformExchange::Run Max Spin Ang} Oxs_UniaxialAnisotropy::Energy Oxs_Demag::Energy    Oxs_UZeeman::Energy  Oxs_UZeeman::B       Oxs_UZeeman::Bx      Oxs_UZeeman::By      Oxs_UZeeman::Bz      Oxs_MinDriver::Iteration {Oxs_MinDriver::Stage iteration} Oxs_MinDriver::Stage Oxs_MinDriver::Mx    Oxs_MinDriver::My    Oxs_MinDriver::Mz   
# Units:                 A/m                               J                                J                               {}                                   {}                                 {}                                  {}                                     {}                                 J                              deg                                    deg                                      deg                                 J                        J                     J                 mT                   mT                   mT                   mT                        {}                           {}                         {}                 A/m                  A/m                  A/m          
                 253391.72499622646               -3.0361106672319434e-16            -3.0361106672319434e-16              0                                    0                                  1                                   1                                      1                                 0                               0                                      0                                        0                                   4.9504950495049508e-20       1.2495226298640491e-16 -4.2861283466009429e-16  50.007616402258023   50.000000000000007   0.87275325000000015  0                      0                            0                          0                    855731.98358059011   85573.198358059046   0                  
                 252606.25374534322               -3.036314807956386e-16            -2.0414072444266122e-20              1                                    0                                  1                                   1                                      2                                 2.0141268225136431e-23             0.030990957665418914                    0.030990957665418914                      0.030990957665418914                 4.9485407807997524e-20       1.2493254518046276e-16 -4.2861353152517759e-16  50.007616402258023   50.000000000000007   0.87275325000000015  0                      1                            1                          0                    855733.67262626032   85556.279744288389  -5.2735593669694936e-20
                 247102.75893845162               -3.0377258099326012e-16            -1.4110019762152243e-19              2                                    0                                  1                                   1                                      3                                 1.2890106937263244e-21             0.24792341791686701                    0.24792341791686701                      0.24792341791686701                 4.9350410068235808e-20       1.2479511097473041e-16 -4.286183313887525e-16  50.007616402258023   50.000000000000007   0.87275325000000015  0                      2                            2                          0                    855745.33983533434   85437.833784665199   2.9809488211185452e-18
                 247158.75718658295               -2.9520021436548506e-16             8.5723666277750496e-18              2                                    0                                  2                                   2                                      4                                 1.2890106937263244e-21             0.24792341791686701                    0.24792341791686701                      0.24792341791686701                 4.9350410068235808e-20       1.2479511097473041e-16 -4.2004596476097744e-16  49.007464074212862   49.000000000000007   0.8552981850000001   0                      3                            0                          1                    855745.33983533434   85437.833784665199   2.9809488211185452e-18
                 246388.52483782789               -2.9522008253752698e-16            -1.9868172041912304e-20              3                                    0                                  2                                   0                                      5                                 1.6265149165843894e-21             0.27798471154215137                    0.27798471154215137                      0.27798471154215137                 4.9331208732798011e-20       1.2477559159376375e-16 -4.2004663185494011e-16  49.007464074212862   49.000000000000007   0.8552981850000001   0                      4                            1                          1                    855746.99924762524   85420.761603002786   1.8707257964933888e-18
                 240991.88262827852               -2.9535739837092596e-16            -1.3731583339896019e-19              4                                    0                                  2                                   0                                      6                                 5.0871607527064819e-21             0.48840970251648919                    0.48840970251648919                      0.48840970251648919                 4.9198595975731018e-20       1.2463954092872082e-16 -4.2005122505637517e-16  49.007464074212862   49.000000000000007   0.8552981850000001   0                      5                            2                          1                    855758.45937399007   85301.240656790993  -7.7882145177454736e-18
                 241053.64993248958               -2.867849243901836e-16             8.5724739807423507e-18              4                                    0                                  3                                   1                                      7                                 5.0871607527064819e-21             0.48840970251648919                    0.48840970251648919                      0.48840970251648919                 4.9198595975731018e-20       1.2463954092872082e-16 -4.1147875107563286e-16  48.007311746167701   48.000000000000007   0.83784312000000005  0                      6                            0                          2                    855758.45937399007   85301.240656790993  -7.7882145177454736e-18
                 240298.42428747672               -2.8680425686290131e-16            -1.9332472717727619e-20              5                                    0                                  3                                   0                                      8                                 5.7293218849545494e-21             0.5175808349489236                     0.5175808349489236                       0.5175808349489236                  4.9179735663537587e-20       1.2462022314465881e-16 -4.1147938906510861e-16  48.007311746167701   48.000000000000007   0.83784312000000005  0                      7                            1                          2                    855760.0891683267    85284.016453074088  -7.01660951563099e-18
                 235007.00479001799               -2.8693785920225936e-16            -1.3360233935801606e-19              6                                    0                                  3                                   0                                      9                                 1.1293933841553543e-20             0.72177471753243871                    0.72177471753243871                      0.72177471753243871                 4.9049505238923362e-20       1.2448557763249457e-16 -4.1148378027383442e-16  48.007311746167701   48.000000000000007   0.83784312000000005  0                      8                            2                          2                    855771.34234076692   85163.431343355041   6.6613381477509387e-20
                 235074.54529670649               -2.7836528044655447e-16             8.5725787557048827e-18              6                                    0                                  4                                   1                                      10                                1.1293933841553543e-20             0.72177471753243871                    0.72177471753243871                      0.72177471753243871                 4.9049505238923362e-20       1.2448557763249457e-16 -4.0291120151812954e-16  47.007159418122541   47                   0.82038805500000012  0                      9                            0                          3                    855771.34234076692   85163.431343355041   6.6613381477509387e-20
                 234334.09730746262               -2.7838408730103168e-16            -1.8806854477199043e-20              7                                    0                                  4                                   0                                      11                                1.2228433016233174e-20             0.75009282742439531                    0.75009282742439531                      0.75009282742439531                 4.9030985593791043e-20       1.2446646435050387e-16 -4.0291181107014557e-16  47.007159418122541   47                   0.82038805500000012  0                      10                           1                          3                    855772.94253216032   85146.056890130072  -8.8817841970012527e-20
                 229146.29408229399               -2.78514046461262e-16            -1.2995916023034695e-19              8                                    0                                  4                                   0                                      12                                1.9811642044207532e-20             0.94831587623551117                    0.94831587623551117                      0.94831587623551117                 4.8903134660979933e-20       1.2433324371993008e-16 -4.0291600495789724e-16  47.007159418122541   47                   0.82038805500000012  0                      11                           2                          3                    855783.98887694045   85024.420027082073   1.1879386363489174e-18
                 229219.6115616445                -2.6994136550471099e-16             8.5726809565510057e-18              8                                    0                                  5                                   1                                      13                                1.9811642044207532e-20             0.94831587623551117                    0.94831587623551117                      0.94831587623551117                 4.8903134660979933e-20       1.2433324371993008e-16 -3.9434332400134628e-16  46.007007090077387   46                   0.80293299000000007  0                      12                           0                          4                    855783.98887694045   85024.420027082073   1.1879386363489174e-18
                 228493.71928091437               -2.6995965685792719e-16            -1.8291353216192551e-20              9                                    0                                  5                                   0                                      14                                2.1026417224408392e-20             0.9758160104320005                     0.9758160104320005                       0.9758160104320005                  4.8884955316849732e-20       1.2431433755222821e-16 -3.9434390578269665e-16  46.007007090077387   46                   0.80293299000000007  0                      13                           1                          4                    855785.55947866431   85006.897339094678   1.1102230246251566e-19
                 223407.97677016573               -2.7008604364683074e-16            -1.2638678890353513e-19              10                                   0                                  5                                   0                                      15                                3.0544422535311232e-20             1.1683130444121999                     1.1683130444121999                       1.1683130444121999                  4.87594809847359e-20       1.2418255946817471e-16 -3.9434790701852547e-16  46.007007090077387   46                   0.80293299000000007  0                      14                           2                          4                    855796.39910898241   84884.222828299666   1.0880185641326535e-17
                 223487.07454430289               -2.6151326305947148e-16             8.5727805873592492e-18              10                                   0                                  6                                   1                                      16                                3.0544422535311232e-20             1.1683130444121999                     1.1683130444121999                       1.1683130444121999                  4.87594809847359e-20       1.2418255946817471e-16 -3.8577512643116622e-16  45.006854762032226   45                   0.78547792500000013  0                      15                           0                          5                    855796.39910898241   84884.222828299666   1.0880185641326535e-17
                 222775.52661773004               -2.6153104919747128e-16            -1.7786137999823744e-20              11                                   0                                  6                                   0                                      17                                3.2027557728888253e-20             1.1950277381491867                     1.1950277381491867                       1.1950277381491867                  4.8741641595566383e-20       1.2416386271059939e-16 -3.8577568110739517e-16  45.006854762032226   45                   0.78547792500000013  0                      16                           1                          5                    855797.94013020478   84866.554181386455   9.4146912488213275e-18
                 217790.36436251859               -2.6165393580904495e-16            -1.2288661157364815e-19              12                                   0                                  6                                   0                                      18                                4.3397386747897507e-20             1.3820272151065385                     1.3820272151065385                       1.3820272151065385                  4.861854114563851e-20       1.2403354261309528e-16 -3.8577949435003376e-16  45.006854762032226   45                   0.78547792500000013  0                      17                           2                          5                    855808.57312839036   84742.857955949294   7.1720407390785118e-18
                 217875.24522307731               -2.5308105815682198e-16             8.5728776522229724e-18              12                                   0                                  7                                   1                                      19                                4.3397386747897507e-20             1.3820272151065385                     1.3820272151065385                       1.3820272151065385                  4.861854114563851e-20       1.2403354261309528e-16 -3.7720661669781078e-16  44.006702433987066   44                   0.76802286000000008  0                      18                           0                          6                    855808.57312839036   84742.857955949294   7.1720407390785118e-18
                 217177.84390246944               -2.5309834964730272e-16            -1.7291490480750221e-20              13                                   0                                  7                                   0                                      20                                4.5137018851197757e-20             1.4079870089250306                     1.4079870089250306                       1.4079870089250306                  4.8601041427149568e-20       1.2401505722428914e-16 -3.7720714493187022e-16  44.006702433987066   44                   0.76802286000000008  0                      19                           1                          6                    855810.08457077062   84725.045909581793   2.1849189124623081e-17
                 212291.877394218                 -2.5321781041474885e-16            -1.1946076744609843e-19              14                                   0                                  7                                   0                                      21                                5.8275906985119539e-20             1.5897017519867604                     1.5897017519867604                       1.5897017519867604                  4.8480312618926917e-20       1.2388620818555062e-16 -3.7721077481990348e-16  44.006702433987066   44                   0.76802286000000008  0                      20                           2                          6                    855820.51096328627   84600.34588781459    2.0738966099997923e-17
# Table End
