# ODT 1.0
# Table Start
# Title: mmArchive Data Table, Wed Jun 16 18:43:17 EDT 2010
# Columns: {Oxs_CGEvolve::Max mxHxm} {Oxs_CGEvolve::Total energy} {Oxs_CGEvolve::Delta E} {Oxs_CGEvolve::Bracket count} {Oxs_CGEvolve::Line min count} {Oxs_CGEvolve::Cycle count} {Oxs_CGEvolve::Cycle sub count} {Oxs_CGEvolve::Energy calc count} Oxs_UniaxialAnisotropy::Energy Oxs_UniformExchange::Energy {Oxs_UniformExchange::Max Spin Ang} {Oxs_UniformExchange::Stage Max Spin Ang} {Oxs_UniformExchange::Run Max Spin Ang} Oxs_UZeeman::Energy  Oxs_UZeeman::B       Oxs_UZeeman::Bx      Oxs_UZeeman::By      Oxs_UZeeman::Bz      Oxs_Demag::Energy    Oxs_MinDriver::Iteration {Oxs_MinDriver::Stage iteration} Oxs_MinDriver::Stage Oxs_MinDriver::mx    Oxs_MinDriver::my    Oxs_MinDriver::mz   
# Units:              A/m                         J                          J                         {}                             {}                           {}                            {}                               {}                               J                             J                              deg                                    deg                                      deg                            J                 mT                   mT                   mT                   mT                     J                       {}                           {}                         {}                 {}                   {}                   {}           
              827591.13441355457          2.4617430423067793e-16       2.4617430423067793e-16        0                              0                            1                             1                                1                                1.6254804544419991e-16          6.3251884788360438e-17             49.576262590207662                     49.576262590207662                       49.576262590207662             0                    0                    0                    0                    0                    2.037437399811757e-17    0                            0                          0                   -0.00056727355580713261  0.00010590257422607591  0.073876667223472026
              825919.58575873403          2.4606956396777255e-16      -1.0474026290537451e-19        1                              0                            1                             1                                2                                1.6245991403635315e-16          6.324449033081937e-17             49.655024910363466                     49.655024910363466                       49.655024910363466             0                    0                    0                    0                    0                    2.0365159600600033e-17    1                            1                          0                   -0.00056718157085214967  0.00010591272741663826  0.073846405477242638
              814251.15281978215          2.4533977825759495e-16      -7.2978571017759775e-19        2                              0                            1                             1                                3                                1.6184297318056617e-16          6.3195270645013041e-17             50.206292208562559                     50.206292208562559                       50.206292208562559             0                    0                    0                    0                    0                    2.0301534432015729e-17    2                            2                          0                   -0.0005665356513911157  0.00010598101155905519  0.073633883637247918
              833407.96316627855          2.4535769425781356e-16       1.7916000218630634e-20        2                              0                            2                             2                                4                                1.6184297318056617e-16          6.3195270645013041e-17             50.206292208562559                     50.206292208562559                       50.206292208562559             1.7916000218630631e-20  50.249378105604457   50.000000000000007   5                    0                    2.0301534432015729e-17    3                            0                          1                   -0.0005665356513911157  0.00010598101155905519  0.073633883637247918
              831994.47321005166          2.4526045509051516e-16      -9.7239167298404769e-20        3                              0                            2                             0                                5                                1.6176098213391254e-16          6.3189253915055545e-17             50.279985102343112                     50.279985102343112                       50.279985102343112             1.6930881943595931e-20  50.249378105604457   50.000000000000007   5                    0                    2.0293288159603496e-17    4                            1                          1                   -0.00053627130994694143  0.00010902203216505083  0.073605611498967327
              822123.69240440836          2.4458264917027037e-16      -6.7780592024479625e-19        4                              0                            2                             0                                6                                1.6118701543474774e-16          6.3149263891393294e-17             50.79582424264342                      50.79582424264342                        50.79582424264342              1.0044286808268997e-20  50.249378105604457   50.000000000000007   5                    0                    2.0236325557321083e-17    5                            2                          1                   -0.0003247093929233081  0.00013032895161147205  0.073407108915868796
              845683.09380543383          2.4459269345707864e-16       1.0044286808268988e-20        4                              0                            3                             1                                7                                1.6118701543474774e-16          6.3149263891393294e-17             50.79582424264342                      50.79582424264342                        50.79582424264342              2.0088573616537993e-20  100.49875621120891   100.00000000000001   10                   0                    2.0236325557321083e-17    6                            0                          2                   -0.0003247093929233081  0.00013032895161147205  0.073407108915868796
              844454.95953186066          2.4450019763502557e-16      -9.2495822053102805e-20        5                              0                            3                             0                                8                                1.611105047119471e-16          6.3144365981892018e-17             50.864976938320986                     50.864976938320986                       50.864976938320986             1.6410688693683625e-20  100.49875621120891   100.00000000000001   10                   0                    2.0228916252492735e-17    7                            1                          2                   -0.00026821612711745783  0.00013602431016028035  0.073380627330824261
              835875.23024746543          2.4385519738110565e-16      -6.4500025391988788e-19        6                              0                            3                             0                                9                                1.6057487963175401e-16          6.3111880791224134e-17             51.348998925029562                     51.348998925029562                       51.348998925029562            -9.302179017807128e-21  100.49875621120891   100.00000000000001   10                   0                    2.0177739137145312e-17    8                            2                          2                    0.00012673153095904013  0.00017592831395883273  0.073194725638259489
              859805.58875727945          2.4385054629159674e-16      -4.6510895089035602e-21        6                              0                            4                             1                                10                               1.6057487963175401e-16          6.3111880791224134e-17             51.348998925029562                     51.348998925029562                       51.348998925029562            -1.3953268526710693e-20  150.74813431681338   150                  15.000000000000002   0                    2.0177739137145312e-17    9                            0                          3                    0.00012673153095904013  0.00017592831395883273  0.073194725638259489
              858733.94004349376          2.4376052843024228e-16      -9.0017861354466847e-20        7                              0                            4                             0                                11                               1.605032692750885e-16          6.3107899358350277e-17             51.414057008403852                     51.414057008403852                       51.414057008403852            -2.1706135536413885e-20  150.74813431681338   150                  15.000000000000002   0                    2.017106593233993e-17    10                           1                          3                    0.00020611969966372553  0.00018395736593056517  0.073169855614103413
              851244.41978902149          2.4313257310308998e-16      -6.279553271522961e-19        8                              0                            4                             0                                12                               1.6000191884888851e-16          6.3081569007154118e-17             51.869425190288354                     51.869425190288354                       51.869425190288354            -7.5912268935052858e-20  150.74813431681338   150                  15.000000000000002   0                    2.0124997515982415e-17    11                           2                          3                    0.00076117068920771242  0.00024020951589134062  0.072995283202818825
              875509.08207025426          2.4310726901344495e-16      -2.5304089645017639e-20        8                              0                            5                             1                                13                               1.6000191884888851e-16          6.3081569007154118e-17             51.869425190288354                     51.869425190288354                       51.869425190288354            -1.0121635858007047e-19  200.99751242241783   200.00000000000003   20                   0                    2.0124997515982415e-17    12                           0                          4                    0.00076117068920771242  0.00024020951589134062  0.072995283202818825
              874570.39243956027          2.4301784280623472e-16      -8.9426207210233605e-20        9                              0                            5                             0                                14                               1.5993468733635168e-16          6.3078343958619316e-17             51.930796113148048                     51.930796113148048                       51.930796113148048            -1.1416977042208747e-19  200.99751242241783   200.00000000000003   20                   0                    2.011898128168583e-17    13                           1                          4                    0.00086064839179843082  0.00025030075839796206  0.072971860281091525
              868007.41677186894          2.4239380179593152e-16      -6.2404101030320032e-19        10                             0                            5                             0                                15                               1.5946395696589545e-16          6.3057099239603021e-17             52.360361259914541                     52.360361259914541                       52.360361259914541            -2.0474316744245502e-19  200.99751242241783   200.00000000000003   20                   0                    2.007748875787551e-17    14                           2                          4                    0.0015562070113034868  0.00032099719361085099  0.072807451815517635
              892574.86870813125          2.4234261600407092e-16      -5.1185791860613736e-20        10                             0                            6                             1                                16                               1.5946395696589545e-16          6.3057099239603021e-17             52.360361259914541                     52.360361259914541                       52.360361259914541            -2.5592895930306878e-19  251.24689052802228   250.00000000000003   25.000000000000004   0                    2.007748875787551e-17    15                           0                          5                    0.0015562070113034868  0.00032099719361085099  0.072807451815517635
              891749.99894002138          2.4225221107171373e-16      -9.0404932357211382e-20        11                             0                            6                             0                                17                               1.5940064560059079e-16          6.3054503593651083e-17             52.418402839417347                     52.418402839417347                       52.418402839417347            -2.7500607647560593e-19  251.24689052802228   250.00000000000003   25.000000000000004   0                    2.007206795394744e-17    16                           1                          5                    0.0016734081538142447  0.00033292031382903666  0.072785329033716373
              885980.41451447259          2.4162114745448254e-16      -6.3106361723117965e-19        12                             0                            6                             0                                18                               1.5895732263555193e-16          6.3037495477539616e-17             52.82466849042175                      52.82466849042175                        52.82466849042175             -4.0840627945722302e-19  251.24689052802228   250.00000000000003   25.000000000000004   0                    2.0034735620848222e-17    17                           2                          5                    0.002492943264619634  0.00041644631466908495  0.072630045156486911
              910823.55115818908          2.4153946619859109e-16      -8.1681255891444614e-20        12                             0                            7                             1                                19                               1.5895732263555193e-16          6.3037495477539616e-17             52.82466849042175                      52.82466849042175                        52.82466849042175             -4.9008753534866768e-19  301.49626863362676   300                  30.000000000000004   0                    2.0034735620848222e-17    18                           0                          6                    0.002492943264619634  0.00041644631466908495  0.072630045156486911
              910096.84906976996          2.4144676716170587e-16      -9.2699036885220208e-20        13                             0                            7                             0                                20                               1.5889752889880631e-16          6.3035427818669195e-17             52.879693937603918                     52.879693937603918                       52.879693937603918            -5.1605188124049623e-19  301.49626863362676   300                  30.000000000000004   0                    2.0029862325470844e-17    19                           1                          6                    0.0026258672655549392  0.0004300055417914881  0.072609091836139977
              905011.74678164232          2.4079951582831798e-16      -6.4725133338786513e-19        14                             0                            7                             0                                21                               1.5847879533062303e-16          6.3021977520797887e-17             53.264851577853314                     53.264851577853314                       53.264851577853314            -6.9762250416495547e-19  301.49626863362676   300                  30.000000000000004   0                    1.999636548106205e-17    20                           2                          6                    0.0035553985424900776  0.00052498879010599321  0.072462009798563334
# Table End
