# ODT 1.0
# Table Start
# Title: mmArchive Data Table, Wed Jun 16 18:43:20 EDT 2010
# Columns: {Oxs_CGEvolve:evolve:Max mxHxm} {Oxs_CGEvolve:evolve:Total energy} {Oxs_CGEvolve:evolve:Delta E} {Oxs_CGEvolve:evolve:Bracket count} {Oxs_CGEvolve:evolve:Line min count} {Oxs_CGEvolve:evolve:Cycle count} {Oxs_CGEvolve:evolve:Cycle sub count} {Oxs_CGEvolve:evolve:Energy calc count} Oxs_UniformExchange::Energy {Oxs_UniformExchange::Max Spin Ang} {Oxs_UniformExchange::Stage Max Spin Ang} {Oxs_UniformExchange::Run Max Spin Ang} Oxs_Demag::Energy    Oxs_UZeeman::Energy  Oxs_UZeeman::B       Oxs_UZeeman::Bx      Oxs_UZeeman::By      Oxs_UZeeman::Bz      Oxs_MinDriver::Iteration {Oxs_MinDriver::Stage iteration} Oxs_MinDriver::Stage Oxs_MinDriver::mx    Oxs_MinDriver::my    Oxs_MinDriver::mz   
# Units:                 A/m                               J                                J                               {}                                   {}                                 {}                                  {}                                     {}                                 J                              deg                                    deg                                      deg                           J                     J                 mT                   mT                   mT                   mT                        {}                           {}                         {}                 {}                   {}                   {}           
                 2188021.646375333                 2.5409754192758653e-16             2.5409754192758653e-16              0                                    0                                  1                                   1                                      1                                 1.9686561031648245e-16             90                                     90                                       90                             5.7231931611104079e-17  0                    0                    0                    0                    0                      0                            0                          0                    0.073659673659673658  7.8093449862677675e-21  3.1179410258004396e-21
                 2186173.823153967                 2.5388499016311448e-16            -2.1255176447205447e-19              1                                    0                                  1                                   1                                      2                                 1.9665832743772868e-16             89.953709520429527                     90                                       90                             5.7226662725385786e-17  0                    0                    0                    0                    0                      1                            1                          0                    0.073687226561198763 -8.9944110175879346e-20  4.9232827087340274e-21
                 2173110.9301714464                2.5240127441922476e-16            -1.4837157438897181e-18              2                                    0                                  1                                   1                                      3                                 1.9521140434180793e-16             89.629676984051414                     90                                       90                             5.718987007741681e-17  0                    0                    0                    0                    0                      2                            2                          0                    0.073879477395200191 -2.6500428373337069e-21 -1.9585472844669429e-21
                 2175099.5125828455                2.4986573075502147e-16            -2.535543664203271e-18              2                                    0                                  2                                   2                                      4                                 1.9521140434180793e-16             89.629676984051414                     89.629676984051414                       90                             5.718987007741681e-17 -2.535543664203271e-18  20.199009876724158   20                   2                    2                      3                            0                          1                    0.073879477395200191 -2.6500428373337069e-21 -1.9585472844669429e-21
                 2173213.2490981375                2.4965218591485247e-16            -2.1354484016900718e-19              3                                    0                                  2                                   0                                      5                                 1.950041870419223e-16             89.582868179713543                     89.629676984051414                       90                             5.7184693229913106e-17 -2.5366943569829377e-18  20.199009876724158   20                   2                    2                      4                            1                          1                    0.073912937182099556  3.457547674245107e-07  3.3982019769268312e-07
                 2159880.3580925232                2.4816158961272218e-16            -1.4905963021302884e-18              4                                    0                                  2                                   0                                      6                                 1.9355777130626443e-16             89.255207441290821                     89.629676984051414                       90                             5.7148546141397388e-17 -2.5447278349396396e-18  20.199009876724158   20                   2                    2                      5                            2                          1                    0.074146532979529015  2.7659190031863901e-06  2.7186620583472193e-06
                 2161756.9890870387                2.4561686177778257e-16            -2.5447278349396396e-18              4                                    0                                  3                                   1                                      7                                 1.9355777130626443e-16             89.255207441290821                     89.255207441290821                       90                             5.7148546141397388e-17 -5.0894556698792792e-18  40.398019753448317   40                   4                    4                      6                            0                          2                    0.074146532979529015  2.7659190031863901e-06  2.7186620583472193e-06
                 2159831.9216610766                2.4540189560016257e-16            -2.1496617761994484e-19              5                                    0                                  3                                   0                                      8                                 1.9335060596592235e-16             89.207869869357964                     89.255207441290821                       90                             5.7143462115152551e-17 -5.0921724809122925e-18  40.398019753448317   40                   4                    4                      7                            1                          2                    0.074185975633008883  3.4615230535696634e-06  3.4023263873120483e-06
                 2147360.6114773368                2.4390142399430999e-16            -1.5004716058526127e-18              6                                    0                                  3                                   0                                      9                                 1.9190460488654214e-16             88.87650783154524                      89.255207441290821                       90                             5.7107966290723997e-17 -5.1111471829561555e-18  40.398019753448317   40                   4                    4                      8                            2                          2                    0.074461448116893508  8.3305043828801139e-06  8.1881746066782356e-06
                 2149137.6306156139                2.413458504028319e-16            -2.5555735914780777e-18              6                                    0                                  4                                   1                                      10                                1.9190460488654214e-16             88.87650783154524                      88.87650783154524                        90                             5.7107966290723997e-17 -7.6667207744342344e-18  60.597029630172472   60.000000000000007   6.0000000000000009   6.0000000000000009     9                            0                          3                    0.074461448116893508  8.3305043828801139e-06  8.1881746066782356e-06
                 2147524.0400747047                2.4112914209422498e-16            -2.1670830860693461e-19              7                                    0                                  4                                   0                                      11                                1.9169758846832531e-16             88.828656125153415                     88.87650783154524                        90                             5.7102978670438385e-17 -7.6714250445387285e-18  60.597029630172472   60.000000000000007   6.0000000000000009   6.0000000000000009     10                           1                          3                    0.074506930336205868  9.379758515043894e-06  9.2194181526763024e-06
                 2136098.4866788555                2.3961654808665551e-16            -1.5125940075694551e-18              8                                    0                                  4                                   0                                      12                                1.9025267892946755e-16             88.493695220621788                     88.87650783154524                        90                             5.7068159334673548e-17 -7.7042901774855749e-18  60.597029630172472   60.000000000000007   6.0000000000000009   6.0000000000000009     11                           2                          3                    0.074824676919877903  1.672415424916978e-05  1.6438415190017652e-05
                 2137763.2339966586                2.3704845136082698e-16            -2.5680967258285252e-18              8                                    0                                  5                                   1                                      13                                1.9025267892946755e-16             88.493695220621788                     88.493695220621788                       90                             5.7068159334673548e-17 -1.0272386903314101e-17  80.796039506896633   80                   8                    8                      12                           0                          4                    0.074824676919877903  1.672415424916978e-05  1.6438415190017652e-05
                 2136106.585807432                 2.3682972918050678e-16            -2.1872218032020586e-19              9                                    0                                  5                                   0                                      14                                1.9004595972242249e-16             88.44535665419248                      88.493695220621788                       90                             5.7063272910208718e-17 -1.0279503452124423e-17  80.796039506896633   80                   8                    8                      13                           1                          4                    0.07487623778493295  1.8130207526649373e-05  1.7820332160679894e-05
                 2124378.9705854068                2.3530310658997872e-16            -1.5266225905280753e-18              10                                   0                                  5                                   0                                      15                                1.8860317558274256e-16             88.106987803510464                     88.493695220621788                       90                             5.7029163678897392e-17 -1.0329232671661244e-17  80.796039506896633   80                   8                    8                      14                           2                          4                    0.075236532865930891  2.7972053690151885e-05  2.7494134119429329e-05
                 2125931.3716297215                2.3272079842206339e-16            -2.5823081679153111e-18              10                                   0                                  6                                   1                                      16                                1.8860317558274256e-16             88.106987803510464                     88.106987803510464                       90                             5.7029163678897392e-17 -1.2911540839576556e-17  100.99504938362078   100.00000000000001   10                   10                     15                           0                          5                    0.075236532865930891  2.7972053690151885e-05  2.7494134119429329e-05
                 2124231.3532030461                2.3249961174166042e-16            -2.2118668040298313e-19              11                                   0                                  6                                   0                                      17                                1.8839673722386753e-16             88.058151896321405                     88.106987803510464                       90                             5.7024379344225168e-17 -1.2921504826432284e-17  100.99504938362078   100.00000000000001   10                   10                     16                           1                          5                    0.075294247725965407  2.9738876560331311e-05  2.9230625573575034e-05
                 2112199.4850271451                2.3095580901864572e-16            -1.5438027230146747e-18              12                                   0                                  6                                   0                                      18                                1.8695596638166512e-16             87.716301736788111                     88.106987803510464                       90                             5.699098671747277e-17 -1.2991144080492145e-17  100.99504938362078   100.00000000000001   10                   10                     17                           2                          5                    0.07569761858544978  4.2105958696715768e-05  4.1386537163577352e-05
                 2113639.4707512101                2.283575802025473e-16            -2.5982288160984291e-18              12                                   0                                  7                                   1                                      19                                1.8695596638166512e-16             87.716301736788111                     87.716301736788111                       90                             5.699098671747277e-17 -1.5589372896590576e-17  121.19405926034494   120.00000000000001   12.000000000000002   12.000000000000002     18                           0                          6                    0.07569761858544978  4.2105958696715768e-05  4.1386537163577352e-05
                 2111895.7671922911                2.2813346974376978e-16            -2.2411045877751228e-19              13                                   0                                  7                                   0                                      20                                1.8674979264982418e-16             87.66695755336309                      87.716301736788111                       90                             5.6986305524013419e-17 -1.5602628430067795e-17  121.19405926034494   120.00000000000001   12.000000000000002   12.000000000000002     19                           1                          6                    0.075761568124529513  4.4237808218435594e-05  4.3481785054529298e-05
                 2099557.4385431628                2.2656927483942394e-16            -1.5641949043458423e-18              14                                   0                                  7                                   0                                      21                                1.853109240173994e-16             87.321549539136399                     87.716301736788111                       90                             5.6953637113954416e-17 -1.5695286291929858e-17  121.19405926034494   120.00000000000001   12.000000000000002   12.000000000000002     20                           2                          6                    0.076208579375886279  5.9159918435046854e-05  5.8149077648501766e-05
# Table End
