# ODT 1.0
# Table Start
# Title: mmArchive Data Table, Wed Jun 16 18:43:35 EDT 2010
# Columns: {Oxs_CGEvolve::Max mxHxm} {Oxs_CGEvolve::Total energy} {Oxs_CGEvolve::Delta E} {Oxs_CGEvolve::Bracket count} {Oxs_CGEvolve::Line min count} {Oxs_CGEvolve::Cycle count} {Oxs_CGEvolve::Cycle sub count} {Oxs_CGEvolve::Energy calc count} Oxs_Exchange6Ngbr::Energy {Oxs_Exchange6Ngbr::Max Spin Ang} {Oxs_Exchange6Ngbr::Stage Max Spin Ang} {Oxs_Exchange6Ngbr::Run Max Spin Ang} Oxs_UniaxialAnisotropy:CoAnis:Energy Oxs_CubicAnisotropy:FeAnis:Energy Oxs_UZeeman::Energy  Oxs_UZeeman::B       Oxs_UZeeman::Bx      Oxs_UZeeman::By      Oxs_UZeeman::Bz      Oxs_Demag::Energy    Oxs_MinDriver::Iteration {Oxs_MinDriver::Stage iteration} Oxs_MinDriver::Stage Oxs_MinDriver::mx    Oxs_MinDriver::my    Oxs_MinDriver::mz   
# Units:              A/m                         J                          J                         {}                             {}                           {}                            {}                               {}                             J                            deg                                  deg                                    deg                                   J                                   J                          J                 mT                   mT                   mT                   mT                     J                       {}                           {}                         {}                 {}                   {}                   {}           
              7241523.0580188595          1.0388337610084388e-14       1.0388337610084388e-14        0                              0                            1                             1                                1                             9.2540932170452172e-15           179.30430080589278                   179.30430080589278                     179.30430080589278                    3.5112213698105533e-16                5.6209354270595444e-18         0                    0                    0                    0                    0                    7.7750132063105517e-16    0                            0                          0                   -0.0011671709365175191  0.0019174838402105626 -0.0037216378551771035
              7241308.0787473768          1.0386456950036159e-14      -1.8806600482285405e-18        1                              0                            1                             1                                2                             9.252266621561647e-15           179.3037878160024                    179.30430080589278                     179.30430080589278                    3.5111419574064399e-16                5.6209140552945388e-18         0                    0                    0                    0                    0                    7.7745521867857465e-16    1                            1                          0                   -0.0011689159284727505  0.0019194726153125938 -0.003723839172550078
              7240599.1334114159          1.0380814902534589e-14      -5.6420475015702257e-18        2                              0                            1                             1                                3                             9.2467868357584254e-15           179.30219465005084                   179.30430080589278                     179.30430080589278                    3.5109036872898448e-16                5.62084991800925e-18         0                    0                    0                    0                    0                    7.7731684812916997e-16    2                            2                          0                   -0.0011741510035486809  0.0019254389035434775 -0.0037304382666553757
              7231290.7889884738          1.0380871615202211e-14       5.6712667622405132e-20        2                              0                            2                             2                                4                             9.2467868357584254e-15           179.30219465005084                   179.30219465005084                     179.30430080589278                    3.5109036872898448e-16                5.62084991800925e-18         5.6712667622404843e-20  20                   20                   0                    0                    7.7731684812916997e-16    3                            0                          1                   -0.0011741510035486809  0.0019254389035434775 -0.0037304382666553757
              7231022.3224509871          1.0378988295612796e-14      -1.8833195894153332e-18        3                              0                            2                             0                                5                             9.2449577169345061e-15           179.30157756914107                   179.30219465005084                     179.30430080589278                    3.5108241681417827e-16                5.6208282697624654e-18         5.6730149834270613e-20  20                   20                   0                    0                    7.7727060344451499e-16    4                            1                          1                   -0.0011745129466112629  0.0019274283068022699 -0.0037326452809914195
              7230152.7849522382          1.0373338274178564e-14      -5.6500214342316343e-18        4                              0                            2                             0                                6                             9.2394703658869149e-15           179.29966476759574                   179.30219465005084                     179.30430080589278                    3.5105855778475359e-16                5.620763303410705e-18         5.6782600032073628e-20  20                   20                   0                    0                    7.7713180460345347e-16    5                            2                          1                   -0.0011755988495491525  0.0019333964094933828 -0.0037392615139019651
              7220800.3597048353          1.0373395056778597e-14       5.6782600032073724e-20        4                              0                            3                             1                                7                             9.2394703658869149e-15           179.29966476759574                   179.29966476759574                     179.30430080589278                    3.5105855778475359e-16                5.620763303410705e-18         1.1356520006414726e-19  40                   40                   0                    0                    7.7713180460345347e-16    6                            0                          2                   -0.0011755988495491525  0.0019333964094933828 -0.0037392615139019651
              7220478.2871345719          1.0371508874674238e-14      -1.8861821043589079e-18        5                              0                            3                             0                                8                             9.2376386573666366e-15           179.29893574059543                   179.29966476759574                     179.30430080589278                    3.5105059492738422e-16                5.6207413764342316e-18         1.1346587932785893e-19  40                   40                   0                    0                    7.7708541512445504e-16    7                            1                          2                   -0.0011745707058638426  0.0019353864402199624 -0.0037414743636750166
              7219447.8008919042          1.0365850269974985e-14      -5.6586046992529621e-18        6                              0                            3                             0                                9                             9.2321435416324667e-15           179.29667944193901                   179.29966476759574                     179.30430080589278                    3.5102670307522668e-16                5.6206755742704655e-18         1.1316792199005755e-19  40                   40                   0                    0                    7.7694618177103063e-16    8                            2                          2                   -0.0011714863252319573  0.0019413563549646878 -0.0037481081508767829
              7210051.415258606           1.036590685393598e-14       5.6583960995028558e-20        6                              0                            4                             1                                10                            9.2321435416324667e-15           179.29667944193901                   179.29667944193901                     179.30430080589278                    3.5102670307522668e-16                5.6206755742704655e-18         1.6975188298508632e-19  60.000000000000007   60.000000000000007   0                    0                    7.7694618177103063e-16    9                            0                          3                   -0.0011714863252319573  0.0019413563549646878 -0.0037481081508767829
              7209675.6165762935          1.0364017604190923e-14      -1.8892497450561855e-18        7                              0                            4                             0                                11                            9.2303091760170682e-15           179.29583023594765                   179.29667944193901                     179.30430080589278                    3.5101872900416321e-16                5.6206533662633299e-18         1.6940042725772662e-19  60.000000000000007   60.000000000000007   0                    0                    7.7689964537617121e-16    10                           1                          3                   -0.0011690608700836186  0.0019433470125101307 -0.0037503269761877409
              7208483.8210459305          1.0358349800434902e-14      -5.6678037560211404e-18        8                              0                            4                             0                                12                            9.2248060930226089e-15           179.29320550475572                   179.29667944193901                     179.30430080589278                    3.5099480351541425e-16                5.6205867213828326e-18         1.683460643146326e-19  60.000000000000007   60.000000000000007   0                    0                    7.7675997111118132e-16    11                           2                          3                   -0.0011617845338925527  0.0019493187370026232 -0.0037569787380553363
              7199043.5961303702          1.0358405915789674e-14       5.6115354771544913e-20        8                              0                            5                             1                                13                            9.2248060930226089e-15           179.29320550475572                   179.29320550475572                     179.30430080589278                    3.5099480351541425e-16                5.6205867213828326e-18         2.2446141908617676e-19  80                   80                   0                    0                    7.7675997111118132e-16    12                           0                          4                   -0.0011617845338925527  0.0019493187370026232 -0.0037569787380553363
              7198613.9498945037          1.0356513391064007e-14      -1.8925247256676582e-18        9                              0                            5                             0                                14                            9.2229690018463852e-15           179.29222755480123                   179.29320550475572                     179.30430080589278                    3.5098681795648219e-16                5.620564229989836e-18         2.2372141270758447e-19  80                   80                   0                    0                    7.7671328561844166e-16    13                           1                          4                   -0.0011579543524336165  0.0019513100207509547 -0.003759203680673528
              7197260.4804202635          1.035083576581339e-14      -5.6776252506159225e-18        10                             0                            5                             0                                15                            9.2174577458136533e-15           179.28920852568007                   179.29320550475572                     179.30430080589278                    3.5096285800814955e-16                5.6204967353252203e-18         2.2150139555486061e-19  80                   80                   0                    0                    7.7657316386070789e-16    14                           2                          4                   -0.0011464638183208452  0.0019572835527644776 -0.0037658738425947092
              7187776.5379927009          1.035089114116228e-14       5.5375348888714817e-20        10                             0                            6                             1                                16                            9.2174577458136533e-15           179.28920852568007                   179.28920852568007                     179.30430080589278                    3.5096285800814955e-16                5.6204967353252203e-18         2.7687674444357577e-19  100.00000000000001   100.00000000000001   0                    0                    7.7657316386070789e-16    15                           0                          5                   -0.0011464638183208452  0.0019572835527644776 -0.0037658738425947092
              7187292.921348487           1.0348995131838176e-14      -1.8960093241037186e-18        11                             0                            6                             0                                17                            9.2156178595190323e-15           179.28809298594527                   179.28920852568007                     179.30430080589278                    3.5095486068404779e-16                5.6204739581357533e-18         2.7561065058655667e-19  100.00000000000001   100.00000000000001   0                    0                    7.7652632702637263e-16    16                           1                          5                   -0.0011412213021948061  0.0019592754621254311 -0.0037681050460004564
              7185777.409008028           1.0343307055817602e-14      -5.6880760205734446e-18        12                             0                            6                             0                                18                            9.2100982213908129e-15           179.28465302327291                   179.28920852568007                     179.30430080589278                    3.509308654437563e-16                5.6204056064534167e-18         2.7181236744106133e-19  100.00000000000001   100.00000000000001   0                    0                    7.7638575100913883e-16    17                           2                          5                   -0.0011254937472974112  0.00196525079949026 -0.0037747940385039385
# Table End
