# ODT 1.0
# Table Start
# Title: mmArchive Data Table, Wed Jun 16 18:43:58 EDT 2010
# Columns: {Oxs_CGEvolve:evolve:Max mxHxm} {Oxs_CGEvolve:evolve:Total energy} {Oxs_CGEvolve:evolve:Delta E} {Oxs_CGEvolve:evolve:Bracket count} {Oxs_CGEvolve:evolve:Line min count} {Oxs_CGEvolve:evolve:Cycle count} {Oxs_CGEvolve:evolve:Cycle sub count} {Oxs_CGEvolve:evolve:Energy calc count} Oxs_UniformExchange::Energy {Oxs_UniformExchange::Max Spin Ang} {Oxs_UniformExchange::Stage Max Spin Ang} {Oxs_UniformExchange::Run Max Spin Ang} Oxs_Demag::Energy    Oxs_FixedZeeman:leftadj:Energy Oxs_FixedZeeman:rightadj:Energy Oxs_MinDriver::Iteration {Oxs_MinDriver::Stage iteration} Oxs_MinDriver::Stage Oxs_MinDriver::mx    Oxs_MinDriver::my    Oxs_MinDriver::mz   
# Units:                 A/m                               J                                J                               {}                                   {}                                 {}                                  {}                                     {}                                 J                              deg                                    deg                                      deg                           J                          J                               J                           {}                           {}                         {}                 {}                   {}                   {}           
                 560317.86134848895                1.6275435715448924e-16             1.6275435715448924e-16              0                                    0                                  1                                   1                                      1                                 2.4927453029209531e-17             8.5858909309485689                     8.5858909309485689                       8.5858909309485689             5.2171147985896151e-16      -1.9194228786684091e-16           -1.9194228786684093e-16          0                            0                          0                   -7.278800062682223e-17  0.13088975284364798  0.0089995500337472119
                 558500.3160393897                 1.6264355075659767e-16            -1.1080639789154786e-19              1                                    0                                  1                                   1                                      2                                 2.4917772120585472e-17             8.594471311911466                      8.594471311911466                        8.594471311911466              5.2161472751223084e-16      -1.9194447443810929e-16           -1.9194447443810932e-16          1                            1                          0                   -7.2819228078002671e-17  0.13091549898357513  0.0089919656671343801
                 545756.64181100298                1.6187089330637302e-16            -7.7265745022465941e-19              2                                    0                                  1                                   1                                      3                                 2.4851016261123849e-17             8.6545339440839992                     8.6545339440839992                       8.6545339440839992             5.2093940883203586e-16      -1.9195976589339334e-16           -1.9195976589339334e-16          2                            2                          0                   -7.2853190841160037e-17  0.1310952330719303   0.008938867708883233
# Table End
