# ODT 1.0
# Table Start
# Title: mmArchive Data Table, Wed Jun 16 18:43:37 EDT 2010
# Columns: {Oxs_CGEvolve:evolve:Max mxHxm} {Oxs_CGEvolve:evolve:Total energy} {Oxs_CGEvolve:evolve:Delta E} {Oxs_CGEvolve:evolve:Bracket count} {Oxs_CGEvolve:evolve:Line min count} {Oxs_CGEvolve:evolve:Cycle count} {Oxs_CGEvolve:evolve:Cycle sub count} {Oxs_CGEvolve:evolve:Energy calc count} Oxs_UniformExchange::Energy {Oxs_UniformExchange::Max Spin Ang} {Oxs_UniformExchange::Stage Max Spin Ang} {Oxs_UniformExchange::Run Max Spin Ang} Oxs_Demag::Energy    Oxs_FixedZeeman:leftadj:Energy Oxs_FixedZeeman:rightadj:Energy Oxs_MinDriver::Iteration {Oxs_MinDriver::Stage iteration} Oxs_MinDriver::Stage Oxs_MinDriver::mx    Oxs_MinDriver::my    Oxs_MinDriver::mz   
# Units:                 A/m                               J                                J                               {}                                   {}                                 {}                                  {}                                     {}                                 J                              deg                                    deg                                      deg                           J                          J                               J                           {}                           {}                         {}                 {}                   {}                   {}           
                 371494.28317235177                1.642145210768584e-16             1.642145210768584e-16              0                                    0                                  1                                   1                                      1                                 2.4238945654825789e-17             33.87136848927814                      33.87136848927814                        33.87136848927814              5.2383150972913553e-16      -1.9192796715355144e-16           -1.9192796715355146e-16          0                            0                          0                   -1.0692260410394283e-16  0.13088976253024001  0.0089995500337471876
                 370841.3856965669                 1.6405628590566394e-16            -1.5823517119446837e-19              1                                    0                                  1                                   1                                      2                                 2.4226707851389951e-17             33.900802712366932                     33.900802712366932                       33.900802712366932             5.236916022803579e-16      -1.9193101211304194e-16           -1.9193101211304194e-16          1                            1                          0                   -1.0691307839039155e-16  0.13092854933273379  0.0089882742641331434
                 367525.45139813854                1.6295404909855149e-16            -1.1022368071124508e-18              2                                    0                                  1                                   1                                      3                                 2.4142334902707388e-17             34.106839878770309                     34.106839878770309                       34.106839878770309             5.2271631069416813e-16      -1.9195229824916202e-16           -1.9195229824916202e-16          2                            2                          0                   -1.0686966867012871e-16  0.13119901208828214  0.0089093280265624287
# Table End
