# ODT 1.0
# Table Start
# Title: mmArchive Data Table, Wed Jun 16 18:43:39 EDT 2010
# Columns: {Oxs_CGEvolve:evolve:Max mxHxm} {Oxs_CGEvolve:evolve:Total energy} {Oxs_CGEvolve:evolve:Delta E} {Oxs_CGEvolve:evolve:Bracket count} {Oxs_CGEvolve:evolve:Line min count} {Oxs_CGEvolve:evolve:Cycle count} {Oxs_CGEvolve:evolve:Cycle sub count} {Oxs_CGEvolve:evolve:Energy calc count} Oxs_UniformExchange::Energy {Oxs_UniformExchange::Max Spin Ang} {Oxs_UniformExchange::Stage Max Spin Ang} {Oxs_UniformExchange::Run Max Spin Ang} Oxs_Demag::Energy    Oxs_FixedZeeman:leftadj:Energy Oxs_FixedZeeman:rightadj:Energy Oxs_MinDriver::Iteration {Oxs_MinDriver::Stage iteration} Oxs_MinDriver::Stage Oxs_MinDriver::mx    Oxs_MinDriver::my    Oxs_MinDriver::mz   
# Units:                 A/m                               J                                J                               {}                                   {}                                 {}                                  {}                                     {}                                 J                              deg                                    deg                                      deg                           J                          J                               J                           {}                           {}                         {}                 {}                   {}                   {}           
                 467342.98979410378                1.6305024546016802e-16             1.6305024546016802e-16              0                                    0                                  1                                   1                                      1                                 2.4780311930836559e-17             17.123773725805933                     17.123773725805933                       17.123773725805933             5.2214878159439215e-16      -1.9193942403253031e-16           -1.9193942403253034e-16          0                            0                          0                   -7.8046008544774283e-17  0.1308897623741378   0.0089995500337471859
                 466572.3380481046                 1.6291920883329842e-16            -1.310366268695963e-19              1                                    0                                  1                                   1                                      2                                 2.4769446835112993e-17             17.141016752970966                     17.141016752970966                       17.141016752970966             5.2203371654016567e-16      -1.9194197727099011e-16           -1.9194197727099014e-16          1                            1                          0                   -7.803824947361093e-17  0.13092063997505279  0.0089904952260811116
                 461161.90843307093                1.6200577662428316e-16            -9.1343220901526375e-19              2                                    0                                  1                                   1                                      3                                 2.4694424169912696e-17             17.261717731970634                     17.261717731970634                       17.261717731970634             5.2123101473286192e-16      -1.919598311392457e-16           -1.919598311392457e-16          2                            2                          0                   -7.7992988456454531e-17  0.13113608920700767  0.0089271011021543386
# Table End
