# ODT 1.0
# Table Start
# Title: mmArchive Data Table, Wed Jun 16 18:44:24 EDT 2010
# Columns: {Oxs_CGEvolve::Max mxHxm} {Oxs_CGEvolve::Total energy} {Oxs_CGEvolve::Delta E} {Oxs_CGEvolve::Bracket count} {Oxs_CGEvolve::Line min count} {Oxs_CGEvolve::Cycle count} {Oxs_CGEvolve::Cycle sub count} {Oxs_CGEvolve::Energy calc count} Oxs_UniformExchange::Energy {Oxs_UniformExchange::Max Spin Ang} {Oxs_UniformExchange::Stage Max Spin Ang} {Oxs_UniformExchange::Run Max Spin Ang} Oxs_UniaxialAnisotropy::Energy Oxs_UZeeman::Energy  Oxs_UZeeman::B       Oxs_UZeeman::Bx      Oxs_UZeeman::By      Oxs_UZeeman::Bz      Oxs_Demag::Energy    Oxs_MinDriver::Iteration {Oxs_MinDriver::Stage iteration} Oxs_MinDriver::Stage Oxs_MinDriver::mx    Oxs_MinDriver::my    Oxs_MinDriver::mz   
# Units:              A/m                         J                          J                         {}                             {}                           {}                            {}                               {}                              J                              deg                                    deg                                      deg                                 J                         J                 mT                   mT                   mT                   mT                     J                       {}                           {}                         {}                 {}                   {}                   {}           
              4997955.3919479242          1.6743124574309996e-16       1.6743124574309996e-16        0                              0                            1                             1                                1                              1.4008369314157754e-16             171.57303097851934                     171.57303097851934                       171.57303097851934                  7.9400000000000009e-18       0                    0                    0                    0                    0                    1.9407552601522415e-17    0                            0                          0                    0.2030747657147477   0.15134551624345299  0                  
              4993770.2475394681          1.67221731137824e-16      -2.0951460527596346e-19        1                              0                            1                             1                                2                              1.3987957548360429e-16             171.54649675979934                     171.57303097851934                       171.57303097851934                  7.9400007390929966e-18       0                    0                    0                    0                    0                    1.9402154915126716e-17    1                            1                          0                    0.20307456326659099  0.15134653688725599  2.7541633322648395e-26
              4964211.2361557744          1.6576190256584307e-16      -1.459828571980939e-18        2                              0                            1                             1                                3                              1.3845721856115133e-16             171.36073987058251                     171.57303097851934                       171.57303097851934                  7.940047300740433e-18       0                    0                    0                    0                    0                    1.9364636703951307e-17    2                            2                          0                    0.20307310086212674  0.15135357427898777  1.7897881647918695e-24
              4973428.9658196354          1.6102136409931757e-16      -4.7405384665254871e-18        2                              0                            2                             2                                4                              1.3845721856115133e-16             171.36073987058251                     171.36073987058251                       171.57303097851934                  7.940047300740433e-18      -4.7405384665254871e-18  20                   20                   0                    0                    1.9364636703951307e-17    3                            0                          1                    0.20307310086212674  0.15135357427898777  1.7897881647918695e-24
              4969211.9741801396          1.6081465910451788e-16      -2.067049947997003e-19        3                              0                            2                             0                                5                              1.3825578934125065e-16             171.33400652495297                     171.36073987058251                       171.57303097851934                  7.9400598171084256e-18      -4.7405563985942453e-18  20                   20                   0                    0                    1.9359366344753034e-17    4                            1                          1                    0.20307386902819757  0.15135455440817774 -6.5914141672011133e-25
              4940258.2101693107          1.5937442874899544e-16      -1.4402303555224492e-18        4                              0                            2                             0                                6                              1.3685218546743526e-16             171.1468567225736                      171.36073987058251                       171.57303097851934                  7.9401885236540749e-18      -4.7406808956905732e-18  20                   20                   0                    0                    1.932273565359666e-17    5                            2                          1                    0.20307920218002798  0.15136130901488098 -7.9513113403666198e-26
              4949566.2062765518          1.5463374785330487e-16      -4.7406808956905732e-18        4                              0                            3                             1                                7                              1.3685218546743526e-16             171.1468567225736                      171.1468567225736                        171.57303097851934                  7.9401885236540749e-18      -9.4813617913811464e-18  40                   40                   0                    0                    1.932273565359666e-17    6                            0                          2                    0.20307920218002798  0.15136130901488098 -7.9513113403666198e-26
              4945478.6544185197          1.5442980371568824e-16      -2.0394413761663033e-19        5                              0                            3                             0                                8                              1.366534420229982e-16             171.11992270408876                     171.1468567225736                        171.57303097851934                  7.9402126885956818e-18      -9.4814434375272382e-18  40                   40                   0                    0                    1.931759244162157e-17    7                            1                          2                    0.20308095094086781  0.15136224844111512 -3.7579234998349524e-24
              4925737.5697370199          1.5300882883782217e-16      -1.4209748778660464e-18        6                              0                            3                             0                                9                              1.3526857117852732e-16             170.93136909973339                     171.1468567225736                        171.57303097851934                  7.9404226369832282e-18      -9.4820129655378001e-18  40                   40                   0                    0                    1.9281847987849428e-17    8                            2                          2                    0.20309314953602206  0.15136871897624574  1.1889811350080927e-25
              4938963.5294931177          1.4826782235505328e-16      -4.7410064827689e-18        6                              0                            4                             1                                10                             1.3526857117852732e-16             170.93136909973339                     170.93136909973339                       171.57303097851934                  7.9404226369832282e-18      -1.4223019448306698e-17  60.000000000000007   60.000000000000007   0                    0                    1.9281847987849428e-17    9                            0                          3                    0.20309314953602206  0.15136871897624574  1.1889811350080927e-25
              4936382.8313905923          1.4806710146983356e-16      -2.0072088521972657e-19        7                              0                            4                             0                                11                             1.3507300953816515e-16             170.90430206115801                     170.93136909973339                       171.57303097851934                  7.9404582269722359e-18      -1.4223210782682961e-17  60.000000000000007   60.000000000000007   0                    0                    1.9276844487379119e-17    10                           1                          3                    0.20309588163529468  0.15136961526670253  2.3853934021099857e-24
              4918009.8327874281          1.4666858392301392e-16      -1.3985175468196353e-18        8                              0                            4                             0                                12                             1.3371031060876221e-16             170.71481823523999                     170.93136909973339                       171.57303097851934                  7.9407476446284398e-18      -1.4224547236686363e-17  60.000000000000007   60.000000000000007   0                    0                    1.9242072906309625e-17    11                           2                          3                    0.20311496511146851  0.15137578526335496  5.506468881506229e-24
              4931297.2740837531          1.4192706817745179e-16      -4.7415157455621214e-18        8                              0                            5                             1                                13                             1.3371031060876221e-16             170.71481823523999                     170.71481823523999                       171.57303097851934                  7.9407476446284398e-18      -1.8966062982248486e-17  80                   80                   0                    0                    1.9242072906309625e-17    12                           0                          4                    0.20311496511146851  0.15137578526335496  5.506468881506229e-24
              4928658.1613221262          1.4172958831411016e-16      -1.9747986334164422e-19        9                              0                            5                             0                                14                             1.3351799383117143e-16             170.68763024748117                     170.71481823523999                       171.57303097851934                  7.9407944187543115e-18      -1.8966410163159777e-17  80                   80                   0                    0                    1.9237210227344184e-17    13                           1                          4                    0.20311868320724569  0.15137663824673497  2.067340948495321e-24
              4909877.382811063           1.4035364627638798e-16      -1.375942037722167e-18        10                             0                            5                             0                                15                             1.3217790231788465e-16             170.49730064340434                     170.71481823523999                       171.57303097851934                  7.9411615862421877e-18      -1.8968836725509875e-17  80                   80                   0                    0                    1.9203419097771016e-17    14                           2                          4                    0.2031446702097956   0.15138250661344343 -1.9618188727633528e-25
              4923225.6580665894          1.3561143709501051e-16      -4.7422091813774688e-18        10                             0                            6                             1                                16                             1.3217790231788465e-16             170.49730064340434                     170.49730064340434                       171.57303097851934                  7.9411615862421877e-18      -2.3711045906887344e-17  100.00000000000001   100.00000000000001   0                    0                    1.9203419097771016e-17    15                           0                          5                    0.2031446702097956   0.15138250661344343 -1.9618188727633528e-25
              4920528.5179228643          1.354170774434085e-16      -1.9435965160202536e-19        11                             0                            6                             0                                17                             1.319887586789471e-16             170.46998544169082                     170.49730064340434                       171.57303097851934                  7.9412193240713389e-18      -2.371159544723417e-17  100.00000000000001   100.00000000000001   0                    0                    1.9198694887624213e-17    16                           1                          5                    0.20314937840330849  0.15138331678911129  5.7695309576267692e-24
              4901342.7201243499          1.340628680539439e-16      -1.3542093894645901e-18        12                             0                            6                             0                                18                             1.3067077521293559e-16             170.27876614009426                     170.49730064340434                       171.57303097851934                  7.9416627207089883e-18      -2.371543777824931e-17  100.00000000000001   100.00000000000001   0                    0                    1.9165867898548633e-17    17                           2                          5                    0.2031822976203676   0.15138888698323169 -9.1432649282122326e-24
# Table End
