# ODT 1.0
# Table Start
# Title: mmArchive Data Table, Wed Jun 16 18:44:38 EDT 2010
# Columns: {Oxs_CGEvolve::Max mxHxm} {Oxs_CGEvolve::Total energy} {Oxs_CGEvolve::Delta E} {Oxs_CGEvolve::Bracket count} {Oxs_CGEvolve::Line min count} {Oxs_CGEvolve::Cycle count} {Oxs_CGEvolve::Cycle sub count} {Oxs_CGEvolve::Energy calc count} Oxs_UniformExchange::Energy {Oxs_UniformExchange::Max Spin Ang} {Oxs_UniformExchange::Stage Max Spin Ang} {Oxs_UniformExchange::Run Max Spin Ang} Oxs_UZeeman::Energy  Oxs_UZeeman::B       Oxs_UZeeman::Bx      Oxs_UZeeman::By      Oxs_UZeeman::Bz      Oxs_Demag::Energy    Oxs_MinDriver::Iteration {Oxs_MinDriver::Stage iteration} Oxs_MinDriver::Stage Oxs_MinDriver::mx    Oxs_MinDriver::my    Oxs_MinDriver::mz   
# Units:              A/m                         J                          J                         {}                             {}                           {}                            {}                               {}                              J                              deg                                    deg                                      deg                            J                 mT                   mT                   mT                   mT                     J                       {}                           {}                         {}                 {}                   {}                   {}           
              185486.68910597806          3.8247185152543734e-16       3.8247185152543734e-16        0                              0                            1                             1                                1                              0                               0                                      0                                        0                              0                    0                    0                    0                    0                    3.8247185152543734e-16    0                            0                          0                    1                    0                    0                  
              183736.71036433216          3.8244102325212811e-16      -3.0828273309210596e-20        1                              0                            1                             1                                2                              2.2393436545481381e-22             0.036959716503756818                    0.036959716503756818                      0.036959716503756818            0                    0                    0                    0                    0                    3.8244079931776268e-16    1                            1                          0                    0.99999997923280526  1.4506129432577199e-22 -2.8419479071649179e-22
              171484.90595688272          3.8223836151602611e-16      -2.0266173610202547e-19        2                              0                            1                             1                                3                              1.4331697850986224e-20             0.2956723777919153                     0.2956723777919153                       0.2956723777919153             0                    0                    0                    0                    0                    3.822240298181751e-16    2                            2                          0                    0.99999867090976824  1.1608125175374288e-21 -2.2739697030133804e-21
              171429.35210001349          3.5423839873055261e-16      -2.7999962785473514e-17        2                              0                            2                             2                                4                              1.4331697850986224e-20             0.2956723777919153                     0.2956723777919153                       0.2956723777919153            -2.7999962785473514e-17  10                   10                   0                    0                    3.822240298181751e-16    3                            0                          1                    0.99999867090976824  1.1608125175374288e-21 -2.2739697030133804e-21
              169798.93190226622          3.5421239587243027e-16      -2.6002858122341867e-20        3                              0                            2                             0                                5                              1.768861366373361e-20             0.32961177834233313                    0.32961177834233313                      0.32961177834233313           -2.7999953407685903e-17  10                   10                   0                    0                    3.8219466066645242e-16    4                            1                          1                    0.99999833598878207  1.3160603559317759e-21 -2.5827256999733094e-21
              158384.68521526709          3.5404089092505416e-16      -1.7150494737609254e-19        4                              0                            2                             0                                6                              5.1136817820499078e-20             0.56719564459658156                    0.56719564459658156                      0.56719564459658156           -2.7999858057115746e-17  10                   10                   0                    0                    3.8198961216434939e-16    5                            2                          1                    0.99999493061127642  2.4147747293820233e-21 -4.7447462625527236e-21
              158273.58208418393          3.2604103286793841e-16      -2.7999858057115746e-17        4                              0                            3                             1                                7                              5.1136817820499078e-20             0.56719564459658156                    0.56719564459658156                      0.56719564459658156           -5.5999716114231491e-17  20                   20                   0                    0                    3.8198961216434939e-16    6                            0                          2                    0.99999493061127642  2.4147747293820233e-21 -4.7447462625527236e-21
              156768.43593673405          3.260187763170189e-16      -2.2256550919485887e-20        5                              0                            3                             0                                8                              5.6590683025912949e-20             0.59801383290657784                    0.59801383290657784                      0.59801383290657784           -5.5999682064386934e-17  20                   20                   0                    0                    3.8196186769837994e-16    7                            1                          2                    0.99999432257833787  2.5776008311899951e-21 -5.0799245762281741e-21
              146231.73938080805          3.258713951372052e-16      -1.4738117981372909e-19        6                              0                            3                             0                                9                              1.0264221267524507e-19             0.81375816506397791                    0.81375816506397791                      0.81375816506397791           -5.5999388663316522e-17  20                   20                   0                    0                    3.8176814158784647e-16    8                            2                          2                    0.99998908327350922  3.7389932420036789e-21 -7.4205919187164679e-21
              146065.09747367117          2.9787170080554693e-16      -2.7999694331658261e-17        6                              0                            4                             1                                10                             1.0264221267524507e-19             0.81375816506397791                    0.81375816506397791                      0.81375816506397791           -8.3999082994974795e-17  30.000000000000004   30.000000000000004   0                    0                    3.8176814158784647e-16    9                            0                          3                    0.99998908327350922  3.7389932420036789e-21 -7.4205919187164679e-21
              144688.65940607982          2.9785233302385504e-16      -1.9367781691906819e-20        7                              0                            4                             0                                11                             1.0938317902769668e-19             0.84141385901507004                    0.84141385901507004                      0.84141385901507004           -8.3999011561405889e-17  30.000000000000004   30.000000000000004   0                    0                    3.8174196140623322e-16    10                           1                          3                    0.99998823287387939  3.9226360255233721e-21 -7.7820091640542641e-21
              135053.43272461227          2.9772349284550426e-16      -1.2884017835077188e-19        8                              0                            4                             0                                12                             1.6278276825809268e-19             1.0350297329976292                     1.0350297329976292                       1.0350297329976292            -8.3998433704866268e-17  30.000000000000004   30.000000000000004   0                    0                    3.8155914378211244e-16    11                           2                          3                    0.99998135362936025  5.1790119811759692e-21 -1.031730256784158e-20
              134831.27036629364          2.6972401494388215e-16      -2.7999477901622091e-17        8                              0                            5                             1                                13                             1.6278276825809268e-19             1.0350297329976292                     1.0350297329976292                       1.0350297329976292            -1.1199791160648837e-16  40                   40                   0                    0                    3.8155914378211244e-16    12                           0                          4                    0.99998135362936025  5.1790119811759692e-21 -1.031730256784158e-20
              133584.19688930636          2.6970685628589265e-16      -1.7158657989524051e-20        9                              0                            5                             0                                14                             1.701856128194481e-19             1.0595517951153519                     1.0595517951153519                       1.0595517951153519            -1.119977916430019e-16  40                   40                   0                    0                    3.815344623160751e-16    13                           1                          4                    0.9999802825268026   5.3635667336087473e-21 -1.0704829879669222e-20
              124854.80740371597          2.6959213967147179e-16      -1.1471661442084801e-19        10                             0                            5                             0                                15                             2.2688985292133027e-19             1.2312408362955585                     1.2312408362955585                       1.2312408362955585            -1.119968523760783e-16  40                   40                   0                    0                    3.8136210219462875e-16    14                           2                          4                    0.99997189621498472  6.7036059243313111e-21 -1.3467163891992381e-20
              124577.15216126975          2.4159292657745223e-16      -2.7999213094019576e-17        10                             0                            6                             1                                16                             2.2688985292133027e-19             1.2312408362955585                     1.2312408362955585                       1.2312408362955585            -1.3999606547009789e-16  50.000000000000007   50.000000000000007   0                    0                    3.8136210219462875e-16    15                           0                          5                    0.99997189621498472  6.7036059243313111e-21 -1.3467163891992381e-20
              123456.98322170126          2.4157744142806877e-16      -1.548514938343956e-20        11                             0                            6                             0                                17                             2.3448206872996971e-19             1.252733642452909                      1.252733642452909                        1.252733642452909             -1.3999588651611232e-16  50.000000000000007   50.000000000000007   0                    0                    3.8133884587545112e-16    16                           1                          5                    0.99997061797223075  6.9066181345484826e-21 -1.388052371455371e-20
              115615.89700885386          2.4147337660203188e-16      -1.0406482603688152e-19        12                             0                            6                             0                                18                             2.9145354720464576e-19             1.4032734101557356                     1.4032734101557356                       1.4032734101557356            -1.3999451240842457e-16  50.000000000000007   50.000000000000007   0                    0                    3.8117643546325183e-16    17                           2                          5                    0.99996080291731815  8.3062128603777245e-21 -1.687578648252546e-20
# Table End
