# ODT 1.0
# Table Start
# Title: mmArchive Data Table, Wed Jun 16 18:44:32 EDT 2010
# Columns: {Oxs_CGEvolve:evolve:Max mxHxm} {Oxs_CGEvolve:evolve:Total energy} {Oxs_CGEvolve:evolve:Delta E} {Oxs_CGEvolve:evolve:Bracket count} {Oxs_CGEvolve:evolve:Line min count} {Oxs_CGEvolve:evolve:Cycle count} {Oxs_CGEvolve:evolve:Cycle sub count} {Oxs_CGEvolve:evolve:Energy calc count} Oxs_UniaxialAnisotropy::Energy Oxs_UniformExchange::Energy {Oxs_UniformExchange::Max Spin Ang} {Oxs_UniformExchange::Stage Max Spin Ang} {Oxs_UniformExchange::Run Max Spin Ang} Oxs_UZeeman::Energy  Oxs_UZeeman::B       Oxs_UZeeman::Bx      Oxs_UZeeman::By      Oxs_UZeeman::Bz      Oxs_Demag::Energy    Oxs_MinDriver::Iteration {Oxs_MinDriver::Stage iteration} Oxs_MinDriver::Stage Oxs_MinDriver::mx    Oxs_MinDriver::my    Oxs_MinDriver::mz   
# Units:                 A/m                               J                                J                               {}                                   {}                                 {}                                  {}                                     {}                                  J                             J                              deg                                    deg                                      deg                            J                 mT                   mT                   mT                   mT                     J                       {}                           {}                         {}                 {}                   {}                   {}           
                 175069.77996474615                3.5435697571807457e-17             3.5435697571807457e-17              0                                    0                                  1                                   1                                      1                                   5.4000000000000002e-19          0                               0                                      0                                        0                              0                    0                    0                    0                    0                    3.4895697571807452e-17    0                            0                          0                    0                    0                    0                  
                 173885.25344405326                3.5424120339430696e-17            -1.157723237675866e-20              1                                    0                                  1                                   1                                      2                                   5.3999600368249558e-19          4.4016338397681368e-23             0.058725196059288026                    0.058725196059288026                      0.058725196059288026            0                    0                    0                    0                    0                    3.4884080319409803e-17    1                            1                          0                    1.1323889357070825e-24  3.0839528461809905e-21  3.9618197211496113e-16
                 165637.90329988376                3.5345941272463117e-17            -7.8179066967575754e-20              2                                    0                                  1                                   1                                      3                                   5.3996914631936017e-19          2.8169863831629033e-21             0.46979897630237688                    0.46979897630237688                      0.46979897630237688            0                    0                    0                    0                    0                    3.4803155139760599e-17    2                            2                          0                    5.9269718762540912e-24  5.4866235012064455e-18  2.0283485825566111e-13
                 202927.02198164948                3.5345941272463117e-17            -3.009265538105056e-36              2                                    0                                  2                                   2                                      4                                   5.3996914631936017e-19          2.8169863831629033e-21             0.46979897630237688                    0.46979897630237688                      0.46979897630237688           -1.5789276854443429e-36  50.002499937503131   50.000000000000007   0.5                  0                    3.4803155139760599e-17    3                            0                          1                    5.9269718762540912e-24  5.4866235012064455e-18  2.0283485825566111e-13
                 202064.80656466429                3.5332342256194282e-17            -1.3599016268839258e-20              3                                    0                                  2                                   0                                      5                                   5.3996604546554169e-19          3.3804396395622463e-21             0.51426086805649185                    0.51426086805649185                      0.51426086805649185           -4.9278677549560445e-21  50.002499937503131   50.000000000000007   0.5                  0                    3.4793923638844133e-17    4                            1                          1                    0.00017110651917290359  9.640351095358608e-12  9.0479252337007613e-11
                 196057.56884308837                3.523881264099145e-17            -9.3529615202832535e-20              4                                    0                                  2                                   0                                      6                                   5.3994602659403193e-19          8.7641805563043318e-21             0.82549233581753056                    0.82549233581753056                      0.82549233581753056           -3.9422704234374972e-20  50.002499937503131   50.000000000000007   0.5                  0                    3.4729525138075488e-17    5                            2                          1                    0.0013688438957638013  1.2631073485634847e-10  7.2267104099869975e-10
                 234360.58839423305                3.5199389936757073e-17            -3.9422704234374972e-20              4                                    0                                  3                                   1                                      7                                   5.3994602659403193e-19          8.7641805563043318e-21             0.82549233581753056                    0.82549233581753056                      0.82549233581753056           -7.8845408468749943e-20  100.00499987500626   100.00000000000001   1                    0                    3.4729525138075488e-17    6                            0                          2                    0.0013688438957638013  1.2631073485634847e-10  7.2267104099869975e-10
                 233712.73249485312                3.5175580678303701e-17            -2.3809258453373585e-20              5                                    0                                  3                                   0                                      8                                   5.3994405031648327e-19          9.5217710275843075e-21             0.85995259845500871                    0.85995259845500871                      0.85995259845500871           -9.5921837135620247e-20  100.00499987500626   100.00000000000001   1                    0                    3.4722036694095253e-17    7                            1                          2                    0.0016653096705983035  1.8951032796806396e-10  8.6582938788912273e-10
                 229191.6530047234                 3.5009898275696056e-17            -1.6568240260764275e-19              6                                    0                                  3                                   0                                      9                                   5.3993345811002822e-19          1.5706943321853704e-20             1.1011712231555129                     1.1011712231555129                       1.1011712231555129            -2.1545548644102936e-19  100.00499987500626   100.00000000000001   1                    0                    3.4669713360705205e-17    8                            2                          2                    0.0037405466313722769  8.2289263662078182e-10  1.8681971229127265e-09
                 152954.5070351247                 3.5225353761900096e-17             2.1545548620403626e-19              6                                    0                                  4                                   1                                      10                                  5.3993345811002822e-19          1.5706943321853704e-20             1.1011712231555129                     1.1011712231555129                       1.1011712231555129            -2.3699307934699761e-28  0.5                  0                    0.5                  0                    3.4669713360705205e-17    9                            0                          3                    0.0037405466313722769  8.2289263662078182e-10  1.8681971229127265e-09
                 151951.31093249194                3.5215930685593153e-17            -9.4230763069394411e-21              7                                    0                                  4                                   0                                      11                                  5.3993000137009877e-19          1.7134867422851165e-20             1.1491983192742146                     1.1491983192742146                       1.1491983192742146            -2.751862497117874e-28  0.5                  0                    0.5                  0                    3.4658865817075391e-17    10                           1                          3                    0.0037411909778071778  9.5550781150006217e-10  2.1710571290533e-09
                 144974.57970393216                3.5152028954337402e-17            -6.3901731255752161e-20              8                                    0                                  4                                   0                                      12                                  5.3990714281613215e-19          2.8878645681976595e-20             1.4853865734585394                     1.4853865734585394                       1.4853865734585394            -5.9307651145076591e-28  0.5                  0                    0.5                  0                    3.4583243166432369e-17    11                           2                          3                    0.0037456934724504481  2.0592934425406946e-09  4.2919578848771741e-09
                 221396.32425943797                3.5367780898943623e-17             2.1575194460622233e-19              8                                    0                                  5                                   1                                      13                                  5.3990714281613215e-19          2.8878645681976595e-20             1.4853865734585394                     1.4853865734585394                       1.4853865734585394             2.1575194401314583e-19  100.00000000000001  -100.00000000000001   0                    0                    3.4583243166432369e-17    12                           0                          4                    0.0037456934724504481  2.0592934425406946e-09  4.2919578848771741e-09
                 220842.66659429832                3.534400773432991e-17            -2.3773164613714593e-20              9                                    0                                  5                                   0                                      14                                  5.3990384523223393e-19          3.0036762764205576e-20             1.5139869752966311                     1.5139869752966311                       1.5139869752966311             1.9771151835820166e-19  100.00000000000001  -100.00000000000001   0                    0                    3.4576355607975268e-17    13                           1                          4                    0.0034324916381632225  2.0551661254005391e-09  4.587211327093293e-09
                 216976.54296840719                3.5178302175881832e-17            -1.6570555844807676e-19              10                                   0                                  5                                   0                                      15                                  5.3988434708247048e-19          3.8787700497634847e-20             1.7141845717353981                     1.7141845717353981                       1.7141845717353981             7.1429359385313273e-20  100.00000000000001  -100.00000000000001   0                    0                    3.4528200768916413e-17    14                           2                          4                    0.0012400930448839109  2.0146986529591622e-09  6.654452704925815e-09
                 139980.11675284817                3.5106872816496518e-17            -7.1429359385313273e-20              10                                   0                                  6                                   1                                      16                                  5.3988434708247048e-19          3.8787700497634847e-20             1.7141845717353981                     1.7141845717353981                       1.7141845717353981             0                    0                    0                    0                    0                    3.4528200768916413e-17    15                           0                          5                    0.0012400930448839109  2.0146986529591622e-09  6.654452704925815e-09
                 139094.83674093438                3.5098436429015124e-17            -8.4363874813923864e-21              11                                   0                                  6                                   0                                      17                                  5.3988138896017317e-19          4.0739013011350389e-20             1.7551265898426174                     1.7551265898426174                       1.7551265898426174             0                    0                    0                    0                    0                    3.4517816027043604e-17    16                           1                          5                    0.0012403466427215746  2.0516233909605813e-09  7.2113939152245064e-09
                 132939.73866616172                3.504100016354754e-17            -5.7436265467587962e-20              12                                   0                                  6                                   0                                      18                                  5.3986219150232767e-19          5.5758997032324398e-20             2.0417198328923343                     2.0417198328923343                       2.0417198328923343             0                    0                    0                    0                    0                    3.4445378975012889e-17    17                           2                          5                    0.0012421192068753353  2.2847530557765659e-09  1.1111552528852599e-08
                 133674.9624602921                 3.5041000130647097e-17            -3.2900444001087954e-26              12                                   0                                  7                                   1                                      19                                  5.3986219150232767e-19          5.5758997032324398e-20             2.0417198328923343                     2.0417198328923343                       2.0417198328923343            -3.2900444003171518e-26  25.000000000000004   0                    25.000000000000004   0                    3.4445378975012889e-17    18                           0                          6                    0.0012421192068753353  2.2847530557765659e-09  1.1111552528852599e-08
                 132874.31055981389                3.503306821307292e-17            -7.9319175741740438e-21              13                                   0                                  7                                   0                                      20                                  5.3985961778999254e-19          5.7887198018548091e-20             2.0784493534075259                     2.0784493534075259                       2.0784493534075259            -2.800926900308812e-25  25.000000000000004   0                    25.000000000000004   0                    3.4435321677357072e-17    19                           1                          6                    0.0012423865486870488  1.9450881252145521e-08  1.1839055989532278e-08
                 127307.74591211225                3.4978913011418077e-17            -5.4155201654843186e-20              14                                   0                                  7                                   0                                      21                                  5.3984320155324562e-19          7.3929211207251852e-20             2.3355553560175939                     2.3355553560175939                       2.3355553560175939            -2.3209114757359917e-24  25.000000000000004   0                    25.000000000000004   0                    3.4365142919569056e-17    20                           2                          6                    0.0012442553444922623  1.6117440803722562e-07  1.6933668365359616e-08
# Table End
