# ODT 1.0
# Table Start
# Title: mmArchive Data Table, Wed Jun 16 18:44:45 EDT 2010
# Columns: {Oxs_CGEvolve::Max mxHxm} {Oxs_CGEvolve::Total energy} {Oxs_CGEvolve::Delta E} {Oxs_CGEvolve::Bracket count} {Oxs_CGEvolve::Line min count} {Oxs_CGEvolve::Cycle count} {Oxs_CGEvolve::Cycle sub count} {Oxs_CGEvolve::Energy calc count} Oxs_UniformExchange::Energy {Oxs_UniformExchange::Max Spin Ang} {Oxs_UniformExchange::Stage Max Spin Ang} {Oxs_UniformExchange::Run Max Spin Ang} Oxs_UZeeman::Energy  Oxs_UZeeman::B       Oxs_UZeeman::Bx      Oxs_UZeeman::By      Oxs_UZeeman::Bz      Oxs_Demag::Energy    Oxs_MinDriver::Iteration {Oxs_MinDriver::Stage iteration} Oxs_MinDriver::Stage Oxs_MinDriver::mx    Oxs_MinDriver::my    Oxs_MinDriver::mz   
# Units:              A/m                         J                          J                         {}                             {}                           {}                            {}                               {}                              J                              deg                                    deg                                      deg                            J                 mT                   mT                   mT                   mT                     J                       {}                           {}                         {}                 {}                   {}                   {}           
              2568869.6774000055          1.6133145111213037e-16       1.6133145111213037e-16        0                              0                            1                             1                                1                              1.4404901560213883e-16             99.355205224319022                     99.355205224319022                       99.355205224319022             0                    0                    0                    0                    0                    1.7282435509991555e-17    0                            0                          0                   -0.0051480753247218139  0.0049071934741156285  0.081179220698950297
              2567646.0277195671          1.6117371760864864e-16      -1.5773350348174825e-19        1                              0                            1                             1                                2                              1.4389585989364803e-16             99.286595111201819                     99.355205224319022                       99.355205224319022             0                    0                    0                    0                    0                    1.7277857715000602e-17    1                            1                          0                   -0.0051490288010513216  0.0049081146043018636  0.081194559166110791
              2558986.0248552142          1.600719568652265e-16      -1.1017607434221235e-18        2                              0                            1                             1                                3                              1.4282611095221152e-16             98.806355003050257                     99.355205224319022                       99.355205224319022             0                    0                    0                    0                    0                    1.7245845913014989e-17    2                            2                          0                   -0.0051556769395969711  0.0049145383004628451  0.081301526965905965
              2570055.0708670137          1.6024988958776588e-16       1.779327225393707e-19        2                              0                            2                             2                                4                              1.4282611095221152e-16             98.806355003050257                     98.806355003050257                       99.355205224319022             1.779327225393707e-19  20                   20                   0                    0                    1.7245845913014989e-17    3                            0                          1                   -0.0051556769395969711  0.0049145383004628451  0.081301526965905965
              2568818.4458949114          1.6009353836167354e-16      -1.5635122609233542e-19        3                              0                            2                             0                                5                              1.4267436274453452e-16             98.737745639861188                     98.806355003050257                       99.355205224319022             1.778643251491314e-19  20                   20                   0                    0                    1.7241311291989894e-17    4                            1                          1                   -0.0051536950958835006  0.0049154472488026251  0.081316764388147472
              2560067.6871340228          1.5900144794065948e-16      -1.0920904210140741e-18        4                              0                            2                             0                                6                              1.416144604447836e-16             98.257511184535559                     98.806355003050257                       99.355205224319022             1.7738465445035082e-19  20                   20                   0                    0                    1.7209602841425518e-17    5                            2                          1                   -0.005139796431686103  0.0049217860631343797  0.081423027321482391
              2571201.1636643242          1.5917883259510982e-16       1.7738465445035082e-19        4                              0                            3                             1                                7                              1.416144604447836e-16             98.257511184535559                     98.257511184535559                       99.355205224319022             3.5476930890070164e-19  40                   40                   0                    0                    1.7209602841425518e-17    6                            0                          2                   -0.005139796431686103  0.0049217860631343797  0.081423027321482391
              2569951.592737583           1.5902365519782373e-16      -1.5517739728608699e-19        5                              0                            3                             0                                8                              1.414641134215289e-16             98.188905902940746                     98.257511184535559                       99.355205224319022             3.544301643923048e-19  40                   40                   0                    0                    1.7205111611902536e-17    7                            1                          2                   -0.005134883002901958  0.0049226830059903425  0.081438163599390795
              2561110.2938602529          1.5793977648278694e-16      -1.0838787150367996e-18        6                              0                            3                             0                                9                              1.4041401363872041e-16             97.708700382823437                     98.257511184535559                       99.355205224319022             3.5205440668427135e-19  40                   40                   0                    0                    1.7173708437382252e-17    8                            2                          2                   -0.0051004637037011949  0.0049289381621145491  0.081543720831007485
              2572307.6289344393          1.5811580368612907e-16       1.7602720334213565e-19        6                              0                            4                             1                                10                             1.4041401363872041e-16             97.708700382823437                     97.708700382823437                       99.355205224319022             5.28081610026407e-19  60.000000000000007   60.000000000000007   0                    0                    1.7173708437382252e-17    9                            0                          3                   -0.0051004637037011949  0.0049289381621145491  0.081543720831007485
              2571045.1455461588          1.5796159232537446e-16      -1.5421136075459837e-19        7                              0                            4                             0                                11                             1.4026506158812697e-16             97.640102511818284                     97.708700382823437                       99.355205224319022             5.2726974421108996e-19  60.000000000000007   60.000000000000007   0                    0                    1.7169260993036406e-17    10                           1                          3                   -0.005092622316982401  0.0049298232728601883  0.081558755822870962
              2562113.5513783242          1.5688447125807636e-16      -1.0771210672981015e-18        8                              0                            4                             0                                12                             1.3922472089564751e-16             97.159949190805079                     97.708700382823437                       99.355205224319022             5.2158411421177258e-19  60.000000000000007   60.000000000000007   0                    0                    1.7138166248217079e-17    11                           2                          3                   -0.0050377077945040621  0.0049359959733518942  0.081663606222108956
              2573542.0308239451          1.5705833262948029e-16       1.7386137140392419e-19        8                              0                            5                             1                                13                             1.3922472089564751e-16             97.159949190805079                     97.159949190805079                       99.355205224319022             6.9544548561569677e-19  80                   80                   0                    0                    1.7138166248217079e-17    12                           0                          4                   -0.0050377077945040621  0.0049359959733518942  0.081663606222108956
              2572301.8322924939          1.5690489014005984e-16      -1.534424894204485e-19        9                              0                            5                             0                                14                             1.3907716731418973e-16             97.091366529916613                     97.159949190805079                       99.355205224319022             6.9395938165754666e-19  80                   80                   0                    0                    1.7133763444212572e-17    13                           1                          4                   -0.0050269426696333639  0.0049368693653113471  0.081678538770701581
              2563528.7542516626          1.5583314670952776e-16      -1.0717434305320765e-18        10                             0                            5                             0                                15                             1.3804660990727627e-16             96.611319961227068                     97.159949190805079                       99.355205224319022             6.8355329809943463e-19  80                   80                   0                    0                    1.7102983504152077e-17    14                           2                          4                   -0.0049515624862325755  0.0049429603952407886  0.081782674150193066
              2575307.3903047647          1.5600403503405262e-16       1.7088832452485866e-19        10                             0                            6                             1                                16                             1.3804660990727627e-16             96.611319961227068                     96.611319961227068                       99.355205224319022             8.5444162262429334e-19  100.00000000000001   100.00000000000001   0                    0                    1.7102983504152077e-17    15                           0                          5                   -0.0049515624862325755  0.0049429603952407886  0.081782674150193066
              2574053.6383965807          1.5585118855857116e-16      -1.5284647548148062e-19        11                             0                            6                             0                                17                             1.3790048086982527e-16             96.54277101718003                      96.611319961227068                       99.355205224319022             8.5208064970256285e-19  100.00000000000001   100.00000000000001   0                    0                    1.7098627039043315e-17    16                           1                          5                   -0.0049378804456569466  0.0049438220467958186  0.08179750076508939
              2565185.5990824932          1.5478361213956937e-16      -1.0675764190017925e-18        12                             0                            6                             0                                18                             1.368798882382495e-16             96.062960693385605                     96.611319961227068                       99.355205224319022             8.3554973696666496e-19  100.00000000000001   100.00000000000001   0                    0                    1.7068174164353198e-17    17                           2                          5                   -0.0048420823885411734  0.0049498312533507293  0.081900896727091888
              2577008.7179358038          1.5495072208696269e-16       1.67109947393333e-19        12                             0                            7                             1                                19                             1.368798882382495e-16             96.062960693385605                     96.062960693385605                       99.355205224319022             1.0026596843599979e-18  120.00000000000001   120.00000000000001   0                    0                    1.7068174164353198e-17    18                           0                          6                   -0.0048420823885411734  0.0049498312533507293  0.081900896727091888
              2575741.4355390067          1.5479826357036132e-16      -1.5245851660137054e-19        13                             0                            7                             0                                20                             1.3673517519624541e-16             95.994448050092913                     96.062960693385605                       99.355205224319022             9.992235017301148e-19  120.00000000000001   120.00000000000001   0                    0                    1.7063864872385799e-17    19                           1                          6                   -0.0048254882443310287  0.0049506813464038216  0.0819156173762704 
              2566778.6124978475          1.5373339822225424e-16      -1.064865348107075e-18        14                             0                            7                             0                                21                             1.3572448752007665e-16             95.514892020708544                     96.062960693385605                       99.355205224319022             9.751654152743677e-19  120.00000000000001   120.00000000000001   0                    0                    1.7033745286903211e-17    20                           2                          6                   -0.0047093060156581648  0.0049566099905851866  0.08201827354933991
# Table End
