# ODT 1.0
# Table Start
# Title: mmArchive Data Table, Wed Jun 16 18:44:53 EDT 2010
# Columns: {Oxs_CGEvolve:evolve:Max mxHxm} {Oxs_CGEvolve:evolve:Total energy} {Oxs_CGEvolve:evolve:Delta E} {Oxs_CGEvolve:evolve:Bracket count} {Oxs_CGEvolve:evolve:Line min count} {Oxs_CGEvolve:evolve:Cycle count} {Oxs_CGEvolve:evolve:Cycle sub count} {Oxs_CGEvolve:evolve:Energy calc count} Oxs_CubicAnisotropy::Energy Oxs_Exchange6Ngbr::Energy {Oxs_Exchange6Ngbr::Max Spin Ang} {Oxs_Exchange6Ngbr::Stage Max Spin Ang} {Oxs_Exchange6Ngbr::Run Max Spin Ang} Oxs_UZeeman::Energy  Oxs_UZeeman::B       Oxs_UZeeman::Bx      Oxs_UZeeman::By      Oxs_UZeeman::Bz      Oxs_MinDriver::Iteration {Oxs_MinDriver::Stage iteration} Oxs_MinDriver::Stage Oxs_MinDriver::mx    Oxs_MinDriver::my    Oxs_MinDriver::mz   
# Units:                 A/m                               J                                J                               {}                                   {}                                 {}                                  {}                                     {}                                 J                          J                            deg                                  deg                                    deg                           J                 mT                   mT                   mT                   mT                        {}                           {}                         {}                 {}                   {}                   {}           
                 4860.8823315788186               -6.0126088910789422e-19            -6.0126088910789422e-19              0                                    0                                  1                                   1                                      1                                -6.0126088910789422e-19        0                             0                                    0                                      0                             0                    0                    0                    0                    0                      0                            0                          0                    1                    0                    0                  
                 105606.37439477177               -6.0188274174027763e-19            -6.2185263238344309e-22              1                                    0                                  1                                   1                                      2                                -6.0230636413524267e-19        4.2362239496506358e-22           0.095292940584689081                  0.095292940584689081                    0.095292940584689081           0                    0                    0                    0                    0                      1                            1                          0                    0.99999979787487081  9.580605642971868e-06  5.2415013837737749e-06
                 74589.601208794382               -6.0262203737171918e-19            -7.3929563144155115e-22              3                                    0                                  2                                   2                                      4                                -6.0315837769634785e-19        5.3634032462865952e-22           0.11682482607862806                  0.11682482607862806                    0.11682482607862806           0                    0                    0                    0                    0                      2                            2                          0                    0.99999932104055478  1.8027630571496987e-05  9.8581221512569721e-06
                 124239.01148727031               -6.0298628260340672e-19            -3.6424523168752312e-22              3                                    0                                  3                                   3                                      5                                -6.0315837769634785e-19        5.3634032462865952e-22           0.11682482607862806                  0.11682482607862806                    0.11682482607862806          -3.6424523168752317e-22  99.999999999999986   0                    0                    99.999999999999986     3                            0                          1                    0.99999932104055478  1.8027630571496987e-05  9.8581221512569721e-06
                 93447.991169551227               -6.2379675034885655e-19            -2.0810467745449861e-20              4                                    0                                  3                                   0                                      6                                -6.031801495630397e-19        4.0799933344407239e-22           0.0935987997939602                   0.11682482607862806                    0.11682482607862806          -2.1024600119260929e-20  99.999999999999986   0                    0                    99.999999999999986     4                            1                          1                    0.99999914533187206  1.8408070144483294e-05  0.00056902069849142708
                 319683.06917906                  -7.6715108553052455e-19            -1.4335433518166798e-19              5                                    0                                  3                                   0                                      7                                -6.0338337488774152e-19        1.8777233134587868e-21           0.25398374583744887                  0.25398374583744887                    0.25398374583744887          -1.6564543395624184e-19  99.999999999999986   0                    0                    99.999999999999986     5                            2                          1                    0.99998908305296852  2.1070971593255587e-05  0.0044831140662384044
                 334156.61098688154               -9.3279651948676634e-19            -1.6564543395624184e-19              5                                    0                                  4                                   1                                      8                                -6.0338337488774152e-19        1.8777233134587868e-21           0.25398374583744887                  0.25398374583744887                    0.25398374583744887          -3.3129086791248367e-19  199.99999999999997   0                    0                    199.99999999999997     6                            0                          2                    0.99998908305296852  2.1070971593255587e-05  0.0044831140662384044
                 259549.44593282253               -9.6446341831412258e-19            -3.1666898827356121e-20              6                                    0                                  4                                   0                                      9                                -6.0341553275555248e-19        9.7350861471673122e-22           0.17278965064540389                  0.25398374583744887                    0.25398374583744887          -3.6202139417328683e-19  199.99999999999997   0                    0                    199.99999999999997     7                            1                          2                    0.99998713891906787  2.1213130877523051e-05  0.0048989675288189337
                 749404.60249228252               -1.1742235433520708e-18            -2.097601250379483e-19              7                                    0                                  4                                   0                                      10                               -6.0366872304196745e-19        6.5771970684446656e-21           0.45825648106082806                  0.45825648106082806                    0.45825648106082806          -5.7713201737854803e-19  199.99999999999997   0                    0                    199.99999999999997     8                            2                          2                    0.99996850954679994  2.2208138749986301e-05  0.0078099003497730272
                 791410.97911766369               -1.4627895520413449e-18            -2.8856600868927402e-19              7                                    0                                  5                                   1                                      11                               -6.0366872304196745e-19        6.5771970684446656e-21           0.45825648106082806                  0.45825648106082806                    0.45825648106082806          -8.656980260678221e-19  299.99999999999994   0                    0                    299.99999999999994     9                            0                          3                    0.99996850954679994  2.2208138749986301e-05  0.0078099003497730272
                 672228.03014640871               -1.4940918892701988e-18            -3.1302337228853934e-20              8                                    0                                  5                                   0                                      12                               -6.036927486272888e-19        4.4920594261020482e-21           0.37746446767736153                  0.45825648106082806                    0.45825648106082806          -8.9489120006901201e-19  299.99999999999994   0                    0                    299.99999999999994     10                           1                          3                    0.9999664413953353   2.2268499907153505e-05  0.0080732667581250028
                 457057.21612314135               -1.7013775999253485e-18            -2.0728571065514974e-19              9                                    0                                  5                                   0                                      13                               -6.0387218541557317e-19        1.7356350453070822e-21           0.24126120022305333                  0.45825648106082806                    0.45825648106082806          -1.0992410495550826e-18  299.99999999999994   0                    0                    299.99999999999994     11                           2                          3                    0.99994986892877391  2.2690981525195323e-05  0.0099168102489499352
                 519033.70829529437               -2.0677912831103761e-18            -3.6641368318502747e-19              9                                    0                                  6                                   1                                      14                               -6.0387218541557317e-19        1.7356350453070822e-21           0.24126120022305333                  0.24126120022305333                    0.45825648106082806          -1.4656547327401099e-18  399.99999999999994   0                    0                    399.99999999999994     12                           0                          4                    0.99994986892877391  2.2690981525195323e-05  0.0099168102489499352
                 446964.89747832547               -2.1476853866782311e-18            -7.989410356785517e-20              10                                   0                                  6                                   0                                      15                               -6.0391270357244033e-19        1.0093596348072331e-21           0.1822576619567739                   0.24126120022305333                    0.45825648106082806          -1.544782042740598e-18  399.99999999999994   0                    0                    399.99999999999994     13                           1                          4                    0.99994441911522014  2.2783327022056084e-05  0.010452195903740313
                 611062.8308320794                -2.7001941559871648e-18            -5.5250876930893375e-19              11                                   0                                  6                                   0                                      16                               -6.0424286845908969e-19        2.7042462589191579e-21           0.31084905205731622                  0.31084905205731622                    0.45825648106082806          -2.0986555337869942e-18  399.99999999999994   0                    0                    399.99999999999994     14                           2                          4                    0.99989815857082154  2.3429562346579668e-05  0.014199775869154  
                 671905.21375079814               -3.2248580394339134e-18            -5.2466388344674856e-19              11                                   0                                  7                                   1                                      17                               -6.0424286845908969e-19        2.7042462589191579e-21           0.31084905205731622                  0.31084905205731622                    0.45825648106082806          -2.6233194172337429e-18  499.99999999999994   0                    0                    499.99999999999994     15                           0                          5                    0.99989815857082154  2.3429562346579668e-05  0.014199775869154  
                 594244.61225478211               -3.321398299025232e-18            -9.6540259591318501e-20              12                                   0                                  7                                   0                                      18                               -6.0430267243333359e-19        1.7242371393237978e-21           0.24874837093704497                  0.31084905205731622                    0.45825648106082806          -2.7188198637312224e-18  499.99999999999994   0                    0                    499.99999999999994     16                           1                          5                    0.9998906912399238   2.3501218398815818e-05  0.014716710607165551
                 595456.48768803221               -3.9902486683482951e-18            -6.6885036932306314e-19              13                                   0                                  7                                   0                                      19                               -6.0476461621945955e-19        1.8125578779387904e-21           0.24707596959008438                  0.31084905205731622                    0.45825648106082806          -3.3872966100067744e-18  499.99999999999994   0                    0                    499.99999999999994     17                           2                          5                    0.99983085032221342  2.4002635821337507e-05  0.018335110985135378
                 664076.77461902925               -4.6677079903496498e-18            -6.7745932200135485e-19              13                                   0                                  8                                   1                                      20                               -6.0476461621945955e-19        1.8125578779387904e-21           0.24707596959008438                  0.24707596959008438                    0.45825648106082806          -4.0647559320081295e-18  599.99999999999989   0                    0                    599.99999999999989     18                           0                          6                    0.99983085032221342  2.4002635821337507e-05  0.018335110985135378
                 610870.84900448855               -4.8075406629785501e-18            -1.3983267262890011e-19              14                                   0                                  8                                   0                                      21                               -6.0484310953293846e-19        1.1841389103868478e-21           0.19921260752598716                  0.24707596959008438                    0.45825648106082806          -4.2038816923559989e-18  599.99999999999989   0                    0                    599.99999999999989     19                           1                          6                    0.99981914777294656  2.4075529266294134e-05  0.018962672959221556
                 626685.91126413108               -5.7818707352641215e-18            -9.7433007228557142e-19              15                                   0                                  8                                   0                                      22                               -6.0545632767514469e-19        1.2886448039811846e-21           0.21370389766537928                  0.24707596959008438                    0.45825648106082806          -5.177703052392958e-18  599.99999999999989   0                    0                    599.99999999999989     20                           2                          6                    0.99972614565650053  2.458551787084137e-05  0.023355340812996506
# Table End
