# ODT 1.0
# Table Start
# Title: mmArchive Data Table, Wed Jun 16 18:45:14 EDT 2010
# Columns: {Oxs_CGEvolve:evolve:Max mxHxm} {Oxs_CGEvolve:evolve:Total energy} {Oxs_CGEvolve:evolve:Delta E} {Oxs_CGEvolve:evolve:Bracket count} {Oxs_CGEvolve:evolve:Line min count} {Oxs_CGEvolve:evolve:Cycle count} {Oxs_CGEvolve:evolve:Cycle sub count} {Oxs_CGEvolve:evolve:Energy calc count} Oxs_UniaxialAnisotropy::Energy Oxs_Exchange6Ngbr::Energy {Oxs_Exchange6Ngbr::Max Spin Ang} {Oxs_Exchange6Ngbr::Stage Max Spin Ang} {Oxs_Exchange6Ngbr::Run Max Spin Ang} Oxs_UZeeman::Energy  Oxs_UZeeman::B       Oxs_UZeeman::Bx      Oxs_UZeeman::By      Oxs_UZeeman::Bz      Oxs_MinDriver::Iteration {Oxs_MinDriver::Stage iteration} Oxs_MinDriver::Stage Oxs_MinDriver::mx    Oxs_MinDriver::my    Oxs_MinDriver::mz   
# Units:                 A/m                               J                                J                               {}                                   {}                                 {}                                  {}                                     {}                                  J                            J                            deg                                  deg                                    deg                           J                 mT                   mT                   mT                   mT                        {}                           {}                         {}                 {}                   {}                   {}           
                 103009.29992881062                1.0651212552277177e-17             1.0651212552277177e-17              0                                    0                                  1                                   1                                      1                                   1.0651212552277177e-17         0                             0                                    0                                      0                             0                    0                    0                    0                    0                      0                            0                          0                    0                    0                   -1                  
                 102515.04181512473                1.0594441606879036e-17            -5.677094539814312e-20              1                                    0                                  1                                   1                                      2                                   1.059400377912233e-17         4.37827756703832e-22           0.096899295131193136                  0.096899295131193136                    0.096899295131193136           0                    0                    0                    0                    0                      1                            1                          0                   -1.095157614964016e-05 -3.818457029807571e-05 -0.99999981688279149
                 263635.7371073346                 1.0229456574500437e-17            -3.6498503237859781e-19              2                                    0                                  1                                   1                                      3                                   1.0201436410390004e-17         2.802016411043341e-20           0.7751822839773187                   0.7751822839773187                     0.7751822839773187            0                    0                    0                    0                    0                      2                            2                          0                   -8.7611896392700042e-05 -0.00030546999108616924 -0.99998828077096691
                 263200.58918775228                1.1579605940080492e-16             1.0556660282630449e-16              2                                    0                                  2                                   2                                      4                                   1.0201436410390004e-17         2.802016411043341e-20           0.7751822839773187                   0.7751822839773187                     0.7751822839773187            1.0556660282630449e-16  99.999999999999986   0                    0                    99.999999999999986     3                            0                          1                   -8.7611896392700042e-05 -0.00030546999108616924 -0.99998828077096691
                 219871.33871991443                1.1577511929577006e-16            -2.0940105034870503e-20              3                                    0                                  2                                   0                                      5                                   1.0183259671040762e-17         2.5361748463238974e-20           0.76451573412302953                  0.7751822839773187                     0.7751822839773187            1.0556649787626605e-16  99.999999999999986   0                    0                    99.999999999999986     4                            1                          1                   -9.174940373722584e-05 -0.00031991602724933387 -0.99998728662314285
                 147507.60931165147                1.1564152847161033e-16            -1.3359082415971375e-19              4                                    0                                  2                                   0                                      6                                   1.0057165286699257e-17         1.8756366781590291e-20           0.68984985274970601                  0.7751822839773187                     0.7751822839773187            1.055656068181295e-16  99.999999999999986   0                    0                    99.999999999999986     5                            2                          1                   -0.00012071181112704437 -0.00042103713332236798 -0.99997884600205444
                 147785.1064517615                 2.2120713528973983e-16             1.055656068181295e-16              4                                    0                                  3                                   1                                      7                                   1.0057165286699257e-17         1.8756366781590291e-20           0.68984985274970601                  0.68984985274970601                    0.7751822839773187            2.11131213636259e-16  199.99999999999997   0                    0                    199.99999999999997     6                            0                          2                   -0.00012071181112704437 -0.00042103713332236798 -0.99997884600205444
                 109464.98533309631                2.2117359923347201e-16            -3.3536056267813427e-20              5                                    0                                  3                                   0                                      8                                   1.0023530494800321e-17         1.9387104571026112e-20           0.68070442214679905                  0.68984985274970601                    0.7751822839773187            2.1113068163410068e-16  199.99999999999997   0                    0                    199.99999999999997     7                            1                          2                   -0.00012803338148878053 -0.00044662479727336182 -0.99997632628507238
                 270883.51147477562                2.2095571609708166e-16            -2.1788313639036373e-19              6                                    0                                  3                                   0                                      9                                   9.7913442767444647e-18         3.8304547896066447e-20           0.95210936379294264                  0.95210936379294264                    0.95210936379294264           2.1112606727244112e-16  199.99999999999997   0                    0                    199.99999999999997     8                            2                          2                   -0.00017928366672541411 -0.00062573331715856304 -0.99995447132593174
                 270472.17786105414                3.2651874973330221e-16             1.0556303363622056e-16              6                                    0                                  4                                   1                                      10                                  9.7913442767444647e-18         3.8304547896066447e-20           0.95210936379294264                  0.95210936379294264                    0.95210936379294264           3.166891009086617e-16  299.99999999999994   0                    0                    299.99999999999994     9                            0                          3                   -0.00017928366672541411 -0.00062573331715856304 -0.99995447132593174
                 217721.04541401105                3.264990898205438e-16            -1.9659912758429689e-20              7                                    0                                  4                                   0                                      11                                  9.774686421711959e-18         3.5908644285019446e-20           0.88894674531357654                  0.95210936379294264                    0.95210936379294264           3.1668849475454682e-16  299.99999999999994   0                    0                    299.99999999999994     10                           1                          3                   -0.00018324642554785406 -0.00063960006825416235 -0.99995255737778588
                 197574.29784180777                3.2638017289782818e-16            -1.1891692271560197e-19              8                                    0                                  4                                   0                                      12                                  9.6591350656662928e-18         3.7217332122775519e-20           0.92670988981133628                  0.95210936379294264                    0.95210936379294264           3.1668382050003911e-16  299.99999999999994   0                    0                    299.99999999999994     11                           2                          3                   -0.00021098549075925665 -0.00073666553676963477 -0.99993779829172447
                 197854.81497142013                4.3194144639784122e-16             1.0556127350001304e-16              8                                    0                                  5                                   1                                      13                                  9.6591350656662928e-18         3.7217332122775519e-20           0.92670988981133628                  0.92670988981133628                    0.95210936379294264           4.2224509400005215e-16  399.99999999999994   0                    0                    399.99999999999994     12                           0                          4                   -0.00021098549075925665 -0.00073666553676963477 -0.99993779829172447
                 149249.2999347751                 4.3191627373234362e-16            -2.5172665497595181e-20              9                                    0                                  5                                   0                                      14                                  9.6355323783293091e-18         3.695989508329306e-20           0.89876616907461104                  0.92670988981133628                    0.95210936379294264           4.2224378145893104e-16  399.99999999999994   0                    0                    399.99999999999994     13                           1                          4                   -0.00021642448266919931 -0.00075571441362124359 -0.99993469000343993
                 281205.64176431199                4.3176086158332946e-16            -1.554121490141744e-19              10                                   0                                  5                                   0                                      15                                  9.4721549330008353e-18         5.5116999302045076e-20           1.1141988685480102                   1.1141988685480102                     1.1141988685480102            4.2223358965102658e-16  399.99999999999994   0                    0                    399.99999999999994     14                           2                          4                   -0.00025449686820541576 -0.00088905261295133475 -0.99991055431992037
                 280863.49985780782                5.373192589960861e-16             1.0555839741275664e-16              10                                   0                                  6                                   1                                      16                                  9.4721549330008353e-18         5.5116999302045076e-20           1.1141988685480102                   1.1141988685480102                     1.1141988685480102            5.2779198706378317e-16  499.99999999999994   0                    0                    499.99999999999994     15                           0                          5                   -0.00025449686820541576 -0.00088905261295133475 -0.99991055431992037
                 223774.71979108284                5.3729990657130097e-16            -1.935242478510303e-20              11                                   0                                  6                                   0                                      17                                  9.4567117928183807e-18         5.257248541515796e-20           1.0424821364274095                   1.1141988685480102                     1.1141988685480102            5.2779062229306742e-16  499.99999999999994   0                    0                    499.99999999999994     16                           1                          5                   -0.00025835219277784815 -0.00090256847132221527 -0.9999079687394713 
                 207412.3317913879                 5.371853989043075e-16            -1.1450766699351984e-19              12                                   0                                  6                                   0                                      18                                  9.3496130033047861e-18         5.5399749342349054e-20           1.0697377883179735                   1.1141988685480102                     1.1141988685480102            5.277803861516603e-16  499.99999999999994   0                    0                    499.99999999999994     17                           2                          5                   -0.0002853391504236931 -0.00099717720371197342 -0.99988857620210925
                 207832.70240051509                6.4274147613463954e-16             1.0555607723033207e-16              12                                   0                                  7                                   1                                      19                                  9.3496130033047861e-18         5.5399749342349054e-20           1.0697377883179735                   1.0697377883179735                     1.1141988685480102            6.3333646338199244e-16  599.99999999999989   0                    0                    599.99999999999989     18                           0                          6                   -0.0002853391504236931 -0.00099717720371197342 -0.99988857620210925
                 155921.16563959705                6.4271683394332525e-16            -2.4642191314331035e-20              13                                   0                                  7                                   0                                      20                                  9.3279067846772766e-18         5.4986316716107081e-20           1.0310093296242135                   1.0697377883179735                     1.1141988685480102            6.3333394084193188e-16  599.99999999999989   0                    0                    599.99999999999989     19                           1                          6                   -0.00029061642688742487 -0.001015692960946528 -0.99988459370759719
                 274819.2576225326                 6.4256598607759607e-16            -1.5084786572911826e-19              14                                   0                                  7                                   0                                      21                                  9.1776843870675487e-18         7.3423325613842301e-20           1.2211410204016127                   1.2211410204016127                     1.2211410204016127            6.3331487836491473e-16  599.99999999999989   0                    0                    599.99999999999989     20                           2                          6                   -0.00032755669100391252 -0.0011452985548496498 -0.99985449856211694
# Table End
