# ODT 1.0
# Table Start
# Title: mmArchive Data Table, Wed Jun 16 18:45:05 EDT 2010
# Columns: {Oxs_CGEvolve:evolve:Max mxHxm} {Oxs_CGEvolve:evolve:Total energy} {Oxs_CGEvolve:evolve:Delta E} {Oxs_CGEvolve:evolve:Bracket count} {Oxs_CGEvolve:evolve:Line min count} {Oxs_CGEvolve:evolve:Cycle count} {Oxs_CGEvolve:evolve:Cycle sub count} {Oxs_CGEvolve:evolve:Energy calc count} Oxs_CubicAnisotropy::Energy Oxs_Exchange6Ngbr::Energy {Oxs_Exchange6Ngbr::Max Spin Ang} {Oxs_Exchange6Ngbr::Stage Max Spin Ang} {Oxs_Exchange6Ngbr::Run Max Spin Ang} Oxs_UZeeman::Energy  Oxs_UZeeman::B       Oxs_UZeeman::Bx      Oxs_UZeeman::By      Oxs_UZeeman::Bz      Oxs_MinDriver::Iteration {Oxs_MinDriver::Stage iteration} Oxs_MinDriver::Stage Oxs_MinDriver::mx    Oxs_MinDriver::my    Oxs_MinDriver::mz   
# Units:                 A/m                               J                                J                               {}                                   {}                                 {}                                  {}                                     {}                                 J                          J                            deg                                  deg                                    deg                           J                 mT                   mT                   mT                   mT                        {}                           {}                         {}                 {}                   {}                   {}           
                 5213.0027390783671               -1.1255246543840805e-18            -1.1255246543840805e-18              0                                    0                                  1                                   1                                      1                                -1.1255246543840805e-18        0                             0                                    0                                      0                             0                    0                    0                    0                    0                      0                            0                          0                    1                    0                    0                  
                 25804.092559306515               -1.1273366491016381e-18            -1.8119947175575252e-21              1                                    0                                  1                                   1                                      2                                -1.1274979706422564e-18        1.6132154061822966e-22           0.096569930027681966                  0.096569930027681966                    0.096569930027681966           0                    0                    0                    0                    0                      1                            1                          0                    0.99999981989504116  2.2485262274573322e-05 -2.2579841609108433e-06
                 232922.00679126274               -1.130993406268373e-18            -3.6567571667350004e-21              2                                    0                                  1                                   1                                      3                                -1.141317669900071e-18        1.032426363169787e-20           0.77254779142660668                  0.77254779142660668                    0.77254779142660668           0                    0                    0                    0                    0                      2                            2                          0                    0.99998847356494025  0.00017987868447632855 -1.8064881225955226e-05
                 250406.52120943472               -1.1295676108011951e-18             1.4257954671780547e-21              2                                    0                                  2                                   2                                      4                                -1.141317669900071e-18        1.032426363169787e-20           0.77254779142660668                  0.77254779142660668                    0.77254779142660668           1.4257954671780547e-21  99.999999999999986   0                    0                    99.999999999999986     3                            0                          1                    0.99998847356494025  0.00017987868447632855 -1.8064881225955226e-05
                 225009.00840169317               -1.1529304936183895e-18            -2.3362882817194583e-20              3                                    0                                  2                                   0                                      5                                -1.1413026861496997e-18        9.12679355442191e-21           0.73837261274342758                  0.77254779142660668                    0.77254779142660668          -2.075460102311181e-20  99.999999999999986   0                    0                    99.999999999999986     4                            1                          1                    0.99998845223968236  0.0001803086366865219  0.00026296156146201461
                 273952.38270887436               -1.3102370550066708e-18            -1.573065613882812e-19              4                                    0                                  2                                   0                                      6                                -1.1412256424927654e-18        7.0054901987511988e-21           0.50877587425111359                  0.77254779142660668                    0.77254779142660668          -1.7601690271265665e-19  99.999999999999986   0                    0                    99.999999999999986     5                            2                          1                    0.99998595641300381  0.00018331779295181728  0.002230140657943031
                 326109.08561521478               -1.4862539577193274e-18            -1.7601690271265665e-19              4                                    0                                  3                                   1                                      7                                -1.1412256424927654e-18        7.0054901987511988e-21           0.50877587425111359                  0.50877587425111359                    0.77254779142660668          -3.520338054253133e-19  199.99999999999997   0                    0                    199.99999999999997     6                            0                          2                    0.99998595641300381  0.00018331779295181728  0.002230140657943031
                 273080.66446684382               -1.5497785049464789e-18            -6.3524547227151398e-20              5                                    0                                  3                                   0                                      8                                -1.1412421596456635e-18        6.1820248659919103e-21           0.50872880870682446                  0.50877587425111359                    0.77254779142660668          -4.1471837016680714e-19  199.99999999999997   0                    0                    199.99999999999997     7                            1                          2                    0.99998498145941894  0.00018363059688411424  0.002627248533098865
                 375685.24923588312               -1.9878030311452042e-18            -4.3802452619872527e-19              6                                    0                                  3                                   0                                      9                                -1.1414130685488466e-18        7.1161982316606017e-21           0.58862883058484328                  0.58862883058484328                    0.77254779142660668          -8.5350616082801805e-19  199.99999999999997   0                    0                    199.99999999999997     8                            2                          2                    0.99997366082902206  0.00018581922072425156  0.0054069772894900503
                 437573.50057751132               -2.4145561115592133e-18            -4.2675308041400903e-19              6                                    0                                  4                                   1                                      10                               -1.1414130685488466e-18        7.1161982316606017e-21           0.58862883058484328                  0.58862883058484328                    0.77254779142660668          -1.2802592412420272e-18  299.99999999999994   0                    0                    299.99999999999994     9                            0                          3                    0.99997366082902206  0.00018581922072425156  0.0054069772894900503
                 372250.72657510958               -2.5317572999019746e-18            -1.1720118834276144e-19              7                                    0                                  4                                   0                                      11                               -1.1414452110146767e-18        5.9506569531979793e-21           0.54122179660924696                  0.58862883058484328                    0.77254779142660668          -1.396262745840496e-18  299.99999999999994   0                    0                    299.99999999999994     10                           1                          3                    0.99997087595168388  0.00018607497189438522  0.0058969001853065878
                 528127.38380971353               -3.3421536505102432e-18            -8.1039635060826845e-19              8                                    0                                  4                                   0                                      12                               -1.1417543167476073e-18        7.8719586432968384e-21           0.52739145867966886                  0.58862883058484328                    0.77254779142660668          -2.2082712924059327e-18  299.99999999999994   0                    0                    299.99999999999994     11                           2                          3                    0.99994456254804576  0.00018786369413509681  0.009326292943207512
                 585354.35265429306               -4.0782440813122204e-18            -7.3609043080197756e-19              8                                    0                                  5                                   1                                      13                               -1.1417543167476073e-18        7.8719586432968384e-21           0.52739145867966886                  0.52739145867966886                    0.77254779142660668          -2.9443617232079102e-18  399.99999999999994   0                    0                    399.99999999999994     12                           0                          4                    0.99994456254804576  0.00018786369413509681  0.009326292943207512
                 516346.67002991179               -4.2326710443045478e-18            -1.5442696299232761e-19              9                                    0                                  5                                   0                                      14                               -1.141812744281829e-18        6.4907290049818239e-21           0.50382230832902741                  0.52739145867966886                    0.77254779142660668          -3.0973490290277009e-18  399.99999999999994   0                    0                    399.99999999999994     13                           1                          4                    0.99993990709889014  0.000188055061788798  0.0098108816469055487
                 476895.92496507743               -5.3041676492420389e-18            -1.0714966049374907e-18              10                                   0                                  5                                   0                                      15                               -1.1423039573134243e-18        6.3674683906901246e-21           0.47517116300644668                  0.52739145867966886                    0.77254779142660668          -4.1682311603193045e-18  399.99999999999994   0                    0                    399.99999999999994     14                           2                          4                    0.99990065680251139  0.00018939312361435331  0.01320291068510082
                 550161.52748473827               -6.3462254393218654e-18            -1.0420577900798261e-18              10                                   0                                  6                                   1                                      16                               -1.1423039573134243e-18        6.3674683906901246e-21           0.47517116300644668                  0.47517116300644668                    0.77254779142660668          -5.210288950399131e-18  499.99999999999994   0                    0                    499.99999999999994     15                           0                          5                    0.99990065680251139  0.00018939312361435331  0.01320291068510082
                 513950.50368872634               -6.5908021022399087e-18            -2.4457666291804394e-19              11                                   0                                  6                                   0                                      17                               -1.1424053489372807e-18        5.4780130865974423e-21           0.45916593444579612                  0.47517116300644668                    0.77254779142660668          -5.4538747663892258e-18  499.99999999999994   0                    0                    499.99999999999994     16                           1                          5                    0.99989228096772909  0.00018958720124080919  0.013820158942019141
                 535900.07759298605               -8.2962173785717938e-18            -1.7054152763318851e-18              12                                   0                                  6                                   0                                      18                               -1.1432482842826956e-18        5.9262658374887319e-21           0.46898932994929377                  0.47517116300644668                    0.77254779142660668          -7.1588953601265872e-18  499.99999999999994   0                    0                    499.99999999999994     17                           2                          5                    0.99982290461208456  0.00019094327311745571  0.018140693720353738
                 613082.05240844598               -9.7279964505971116e-18            -1.4317790720253174e-18              12                                   0                                  7                                   1                                      19                               -1.1432482842826956e-18        5.9262658374887319e-21           0.46898932994929377                  0.46898932994929377                    0.77254779142660668          -8.5906744321519049e-18  599.99999999999989   0                    0                    599.99999999999989     18                           0                          6                    0.99982290461208456  0.00019094327311745571  0.018140693720353738
                 584969.24891285785               -1.0045650880135141e-17            -3.1765442953803026e-19              13                                   0                                  7                                   0                                      20                               -1.1434002157844212e-18        5.260618253213495e-21           0.4573904340127008                   0.46898932994929377                    0.77254779142660668          -8.9075112826039348e-18  599.99999999999989   0                    0                    599.99999999999989     19                           1                          6                    0.99981049295569469  0.00019111869264323657  0.018809749486436596
                 581012.02563573606               -1.226457336536767e-17            -2.2189224852325285e-18              14                                   0                                  7                                   0                                      21                               -1.1446199696014366e-18        5.2706136953545397e-21           0.46212615447523092                  0.46898932994929377                    0.77254779142660668          -1.1125224009461587e-17  599.99999999999989   0                    0                    599.99999999999989     20                           2                          6                    0.9997110079874757   0.00019234370541688071  0.023492833178572016
# Table End
