# ODT 1.0
# Table Start
# Title: mmArchive Data Table, Wed Jun 16 18:45:20 EDT 2010
# Columns: {Oxs_CGEvolve::Max mxHxm} {Oxs_CGEvolve::Total energy} {Oxs_CGEvolve::Delta E} {Oxs_CGEvolve::Bracket count} {Oxs_CGEvolve::Line min count} {Oxs_CGEvolve::Cycle count} {Oxs_CGEvolve::Cycle sub count} {Oxs_CGEvolve::Energy calc count} Oxs_CubicAnisotropy::Energy Oxs_RandomSiteExchange::Energy {Oxs_RandomSiteExchange::Max Spin Ang} {Oxs_RandomSiteExchange::Stage Max Spin Ang} {Oxs_RandomSiteExchange::Run Max Spin Ang} Oxs_UZeeman::Energy  Oxs_UZeeman::B       Oxs_UZeeman::Bx      Oxs_UZeeman::By      Oxs_UZeeman::Bz      Oxs_Demag::Energy    Oxs_MinDriver::Iteration {Oxs_MinDriver::Stage iteration} Oxs_MinDriver::Stage Oxs_MinDriver::mx    Oxs_MinDriver::my    Oxs_MinDriver::mz   
# Units:              A/m                         J                          J                         {}                             {}                           {}                            {}                               {}                              J                            J                                 deg                                       deg                                         deg                              J                 mT                   mT                   mT                   mT                     J                       {}                           {}                         {}                 {}                   {}                   {}           
              4625538.5698623993          9.5404428119477307e-16       9.5404428119477307e-16        0                              0                            1                             1                                1                             -3.6202169568353203e-19           9.0051453665807014e-16                178.59867172298482                        178.59867172298482                          178.59867172298482              0                    0                    0                    0                    0                    5.3891766232386291e-17    0                            0                          0                   -0.003208824032113043  0.016552589984772586  0.001673588835016633
              4624977.804014774           9.5383750756971498e-16      -2.0677362505806746e-19        1                              0                            1                             1                                2                             -3.6201935721203246e-19           9.0031022135369635e-16                178.58020122134374                        178.59867172298482                          178.59867172298482              0                    0                    0                    0                    0                    5.3889305573230548e-17    1                            1                          0                   -0.003210256920565598  0.016559844926403292  0.0016725579126159274
              4623273.9431014163          9.5321717979742708e-16      -6.2032777228781881e-19        2                              0                            1                             1                                3                             -3.620123458246783e-19           8.9969727285312028e-16                178.52085738003544                        178.59867172298482                          178.59867172298482              0                    0                    0                    0                    0                    5.3881919290131428e-17    2                            2                          0                   -0.003214550543811636  0.01658160900750506  0.0016694654150007737
              4623730.0184143987          9.5321870649828684e-16       1.5267008597992373e-21        2                              0                            2                             2                                4                             -3.620123458246783e-19           8.9969727285312028e-16                178.52085738003544                        178.52085738003544                          178.59867172298482              1.5267008597992854e-21  2.0024984394500787   2                    0.10000000000000001  0                    5.3881919290131428e-17    3                            0                          1                   -0.003214550543811636  0.01658160900750506  0.0016694654150007737
              4623157.6905899923          9.5301184275199564e-16      -2.0686374629124317e-19        3                              0                            2                             0                                5                             -3.6201000066446356e-19           8.9949287313642401e-16                178.49983693075623                        178.52085738003544                          178.59867172298482              1.5272549153436376e-21  2.0024984394500787   2                    0.10000000000000001  0                    5.3879452361320786e-17    4                            1                          1                   -0.003215780130385518  0.016588886503221694  0.0016684300683048265
              4621419.1755779721          9.5239124522041134e-16      -6.2059753158438631e-19        4                              0                            2                             0                                6                             -3.6200296955210719e-19           8.9887967200243997e-16                178.43343764466374                        178.52085738003544                          178.59867172298482              1.5289138715537681e-21  2.0024984394500787   2                    0.10000000000000001  0                    5.3872047273651785e-17    5                            2                          1                   -0.0032194638371784144  0.016610718257513039  0.001665324338488215
              4621877.5876322584          9.5239277413428272e-16       1.5289138715537775e-21        4                              0                            3                             1                                7                             -3.6200296955210719e-19           8.9887967200243997e-16                178.43343764466374                        178.43343764466374                          178.59867172298482              3.0578277431075362e-21  4.0049968789001573   4                    0.20000000000000001  0                    5.3872047273651785e-17    6                            0                          2                   -0.0032194638371784144  0.016610718257513039  0.001665324338488215
              4621293.7297996078          9.5218581877700425e-16      -2.06955357278477e-19        5                              0                            3                             0                                8                             -3.6200061790266992e-19           8.9867518666904145e-16                178.41025131459344                        178.43343764466374                          178.59867172298482              3.0586733434696286e-21  4.0049968789001573   4                    0.20000000000000001  0                    5.3869574052522115e-17    7                            1                          2                   -0.0032204894711764364  0.016618018431815793  0.001664284576525032
              4619520.656807174           9.5156494701719871e-16      -6.2087175980555071e-19        6                              0                            3                             0                                9                             -3.6199356766608448e-19           8.9806172928890533e-16                178.33788144496239                        178.43343764466374                          178.59867172298482              3.0612037098138394e-21  4.0049968789001573   4                    0.20000000000000001  0                    5.3862150092249699e-17    8                            2                          2                   -0.0032235613099382936  0.016639918232924641  0.0016611656418615314
              4619981.4025676893          9.5156647761905375e-16       1.5306018549068659e-21        6                              0                            4                             1                                10                            -3.6199356766608448e-19           8.9806172928890533e-16                178.33788144496239                        178.33788144496239                          178.59867172298482              4.5918055647207588e-21  6.0074953183502364   6.0000000000000009   0.30000000000000004  0                    5.3862150092249699e-17    9                            0                          3                   -0.0032235613099382936  0.016639918232924641  0.0016611656418615314
              4619386.0469370009          9.5135942916145924e-16      -2.0704845759443494e-19        7                              0                            4                             0                                11                            -3.6199120972852437e-19           8.9785715713626815e-16                178.31286731848996                        178.33788144496239                          178.59867172298482              4.5926789257056555e-21  6.0074953183502364   6.0000000000000009   0.30000000000000004  0                    5.3859670555993849e-17    10                           1                          3                   -0.0032243823343713614  0.016647241211326654  0.001660121473897133
              4617578.5128062209          9.5073827870581142e-16      -6.2115045564788451e-19        8                              0                            4                             0                                12                            -3.6198414097328979e-19           8.9724343990279255e-16                178.23546661991477                        178.33788144496239                          178.59867172298482              4.5952893366801987e-21  6.0074953183502364   6.0000000000000009   0.30000000000000004  0                    5.385222765465548e-17    11                           2                          3                   -0.0032268403346502896  0.016669209435920391  0.0016569893624567295
              4618041.5892207753          9.5073981046892355e-16       1.531763112226753e-21        8                              0                            5                             1                                13                            -3.6198414097328979e-19           8.9724343990279255e-16                178.23546661991477                        178.23546661991477                          178.59867172298482              6.1270524489069313e-21  8.0099937578003146   8                    0.40000000000000002  0                    5.385222765465548e-17    12                           0                          4                   -0.0032268403346502896  0.016669209435920391  0.0016569893624567295
              4617434.7682435391          9.505326674220915e-16      -2.0714304683200832e-19        9                              0                            5                             0                                14                            -3.6198177695030763e-19           8.9703877973022249e-16                178.20891358292982                        178.23546661991477                          178.59867172298482              6.1276884965286509e-21  8.0099937578003146   8                    0.40000000000000002  0                    5.3849741780322849e-17    13                           1                          4                   -0.0032274560862042391  0.01667655534495471  0.0016559407979971894
              4615592.8705391278          9.4991123380422892e-16      -6.2143361786272971e-19        10                             0                            5                             0                                15                            -3.6197469028679117e-19           8.9642479904177165e-16                178.12727685942923                        178.23546661991477                          178.59867172298482              6.129583718238394e-21  8.0099937578003146   8                    0.40000000000000002  0                    5.3842279869025707e-17    14                           2                          4                   -0.0032292982585749226  0.016698592372761004  0.0016527955385713981
              4616058.2745385533          9.4991276620015837e-16       1.5323959295595291e-21        10                             0                            6                             1                                16                            -3.6197469028679117e-19           8.9642479904177165e-16                178.12727685942923                        178.12727685942923                          178.59867172298482              7.6619796477979916e-21  10.012492197250394   10                   0.5                  0                    5.3842279869025707e-17    15                           0                          5                   -0.0032292982585749226  0.016698592372761004  0.0016527955385713981
              4615440.0209071534          9.4970552707555637e-16      -2.0723912460201024e-19        11                             0                            6                             0                                17                            -3.6197232038268187e-19           8.9622004965041549e-16                178.09942715263008                        178.12727685942923                          178.59867172298482              7.6621120018487578e-21  10.012492197250394   10                   0.5                  0                    5.3839787633521794e-17    16                           1                          5                   -0.003229708067577114  0.016705961339987547  0.0016517425873648947
              4613563.8579152981          9.4908380583030109e-16      -6.2172124525528839e-19        12                             0                            6                             0                                18                            -3.6196521642601699e-19           8.9560580191090287e-16                178.01421676668363                        178.12727685942923                          178.59867172298482              7.6624928827195997e-21  10.012492197250394   10                   0.5                  0                    5.3832306642941498e-17    17                           2                          5                   -0.0032309324035406355  0.016728067553815215  0.0016485842094729108
              4614031.586413593           9.4908533832887771e-16       1.5324985765439025e-21        12                             0                            7                             1                                19                            -3.6196521642601699e-19           8.9560580191090287e-16                178.01421676668363                        178.01421676668363                          178.59867172298482              9.1949914592635203e-21  12.014990636700473   12.000000000000002   0.60000000000000009  0                    5.3832306642941498e-17    18                           0                          6                   -0.0032309324035406355  0.016728067553815215  0.0016485842094729108
              4613401.9330609124          9.488780016383447e-16      -2.0733669053287277e-19        13                             0                            7                             0                                20                            -3.6196284084666217e-19           8.9540096210374722e-16                177.9852712636858                         178.01421676668363                          178.59867172298482              9.1943524167740395e-21  12.014990636700473   12.000000000000002   0.60000000000000009  0                    5.3829808023027502e-17    19                           1                          6                   -0.0032311355939262936  0.016735459707827756  0.0016475268815117907
              4611491.6037880899          9.4825598830166104e-16      -6.2201333668371077e-19        14                             0                            7                             0                                21                            -3.619557202167253e-19           8.9478644372263298e-16                177.89703464309935                        178.01421676668363                          178.59867172298482              9.1924158379385569e-21  12.014990636700473   12.000000000000002   0.60000000000000009  0                    5.382230788340682e-17    20                           2                          6                   -0.0032317400658092186  0.016757635493587726  0.0016443554154066766
# Table End
