# ODT 1.0
# Table Start
# Title: mmArchive Data Table, Wed Jun 16 18:45:22 EDT 2010
# Columns: {Oxs_CGEvolve:evolver:Max mxHxm} {Oxs_CGEvolve:evolver:Total energy} {Oxs_CGEvolve:evolver:Delta E} {Oxs_CGEvolve:evolver:Bracket count} {Oxs_CGEvolve:evolver:Line min count} {Oxs_CGEvolve:evolver:Cycle count} {Oxs_CGEvolve:evolver:Cycle sub count} {Oxs_CGEvolve:evolver:Energy calc count} Oxs_UniformExchange::Energy {Oxs_UniformExchange::Max Spin Ang} {Oxs_UniformExchange::Stage Max Spin Ang} {Oxs_UniformExchange::Run Max Spin Ang} Oxs_Demag::Energy    Oxs_UZeeman::Energy  Oxs_UZeeman::B       Oxs_UZeeman::Bx      Oxs_UZeeman::By      Oxs_UZeeman::Bz      Oxs_MinDriver::Iteration {Oxs_MinDriver::Stage iteration} Oxs_MinDriver::Stage Oxs_MinDriver::mx    Oxs_MinDriver::my    Oxs_MinDriver::mz   
# Units:                 A/m                                 J                                J                                 {}                                   {}                                   {}                                   {}                                      {}                                 J                              deg                                    deg                                      deg                           J                     J                 mT                   mT                   mT                   mT                        {}                           {}                         {}                 {}                   {}                   {}           
                  338083.65086690948                1.1084000272198613e-16               1.1084000272198613e-16               0                                    0                                    1                                    1                                       1                                 0                               0                                      0                                        0                              1.1084000272198613e-16  0                    167.55160819145144   0                   -167.55160819145144   0                      0                            0                          0                    0.99995000374968801  0                    0.0099995000374968734
                  337602.75825099414                1.099131047600243e-16              -9.268979619618298e-19               1                                    0                                    1                                    1                                       2                                 1.6708405519146685e-25             0.012170204987297149                    0.012170204987297149                      0.012170204987297149            1.1083574103993999e-16 -9.2263644699975079e-19  167.55160819145144   0                   -167.55160819145144   0                      1                            1                          0                    0.99995013326784588 -0.00034416129191427541  0.0099805979357937141
                  334223.0450069409                 1.0342732526411677e-16              -6.4857794959075358e-18               2                                    0                                    1                                    1                                       3                                 1.0693057047525733e-23             0.097361579378811056                    0.097361579378811056                      0.097361579378811056            1.1080837839030693e-16 -7.3810638192472136e-18  167.55160819145144   0                   -167.55160819145144   0                      2                            2                          0                    0.99994770808394806 -0.0027532799815077357  0.0098482504722310887
# Table End
