# ODT 1.0
# Table Start
# Title: mmArchive Data Table, Wed Jun 16 18:45:27 EDT 2010
# Columns: {Oxs_CGEvolve:evolve:Max mxHxm} {Oxs_CGEvolve:evolve:Total energy} {Oxs_CGEvolve:evolve:Delta E} {Oxs_CGEvolve:evolve:Bracket count} {Oxs_CGEvolve:evolve:Line min count} {Oxs_CGEvolve:evolve:Cycle count} {Oxs_CGEvolve:evolve:Cycle sub count} {Oxs_CGEvolve:evolve:Energy calc count} Oxs_UniaxialAnisotropy::Energy Oxs_UniformExchange::Energy {Oxs_UniformExchange::Max Spin Ang} {Oxs_UniformExchange::Stage Max Spin Ang} {Oxs_UniformExchange::Run Max Spin Ang} Oxs_StageZeeman::Energy {Oxs_StageZeeman::B max} {Oxs_StageZeeman::Bx max} {Oxs_StageZeeman::By max} {Oxs_StageZeeman::Bz max} Oxs_Demag::Energy    Oxs_MinDriver::Iteration {Oxs_MinDriver::Stage iteration} Oxs_MinDriver::Stage Oxs_MinDriver::mx    Oxs_MinDriver::my    Oxs_MinDriver::mz   
# Units:                 A/m                               J                                J                               {}                                   {}                                 {}                                  {}                                     {}                                  J                             J                              deg                                    deg                                      deg                              J                       mT                       mT                        mT                        mT                     J                       {}                           {}                         {}                 {}                   {}                   {}           
                 224618.99953910062               -1.65485520884593e-17            -1.65485520884593e-17              0                                    0                                  1                                   1                                      1                                   1.9992003998001003e-18          0                               0                                      0                                        0                              -3.1992002998750553e-17      100                      100                       0                         0                       1.3444250510491151e-17    0                            0                          0                    0.99975009371095458  0.019995001874219091  0.0099975009371095457
                 223825.92682312996               -1.6551894524000593e-17            -3.3424355412948441e-21              1                                    0                                  1                                   1                                      2                                   1.9992012526056475e-18          3.7833986685846524e-24             0.032351910759519639                    0.032351910759519639                      0.032351910759519639            -3.1992017026006753e-17      100                      100                       0                         0                       1.3440917466001841e-17    1                            1                          0                    0.99975053206271081  0.019984085845589791  0.009973879846394194
                 218270.0355116408                -1.6574951152992045e-17            -2.30566289914516e-20              2                                    0                                  1                                   1                                      3                                   1.9992060892426577e-18          2.421307854358048e-22             0.25881044717038088                    0.25881044717038088                      0.25881044717038088            -3.1992086237777645e-17      100                      100                       0                         0                       1.3417686864757504e-17    2                            2                          0                    0.99975269493055119  0.019907655533263808  0.0098085233753237699
                 229211.1203266427                -1.6199541176572099e-17             3.754099764199469e-19              2                                    0                                  2                                   2                                      4                                   1.9992060892426577e-18          2.421307854358048e-22             0.25881044717038088                    0.25881044717038088                      0.25881044717038088            -3.1616676261357696e-17      100                      98.480775301220802        17.364817766693033        0                       1.3417686864757504e-17    3                            0                          1                    0.99975269493055119  0.019907655533263808  0.0098085233753237699
                 228477.36531872815               -1.6202805425323503e-17            -3.2642487514062351e-21              3                                    0                                  2                                   0                                      5                                   1.9992024079413692e-18          3.0216084470041074e-22             0.28856803387623409                    0.28856803387623409                      0.28856803387623409            -3.161688248354826e-17      100                      98.480775301220802        17.364817766693033        0                       1.3414572489438687e-17    4                            1                          1                    0.9997518231942869   0.019949711466040847  0.0097858652880863182
                 223336.52875248581               -1.6225352090242959e-17            -2.2546664919455432e-20              4                                    0                                  2                                   0                                      6                                   1.9991753916292222e-18          9.0844366390458369e-22             0.4968670869432445                     0.4968670869432445                       0.4968670869432445             -3.1618298630720294e-17      100                      98.480775301220802        17.364817766693033        0                       1.3392862705184206e-17    5                            2                          1                    0.99974485453285322  0.020244084788127059  0.0096272503989107139
                 234342.65110737275               -1.4891109371648618e-17             1.3342427185943428e-18              4                                    0                                  3                                   1                                      7                                   1.9991753916292222e-18          9.0844366390458369e-22             0.4968670869432445                     0.4968670869432445                       0.4968670869432445             -3.0284055912125949e-17      100.00000000000001       93.969262078590845        34.202014332566876        0                       1.3392862705184206e-17    6                            0                          2                    0.99974485453285322  0.020244084788127059  0.0096272503989107139
                 233665.16827119284               -1.4894852720857925e-17            -3.743349209307923e-21              5                                    0                                  3                                   0                                      8                                   1.9991673881180031e-18          1.0143316277391756e-21             0.52428302019387707                    0.52428302019387707                      0.52428302019387707            -3.0284990074200704e-17      100.00000000000001       93.969262078590845        34.202014332566876        0                       1.3389955633597035e-17    7                            1                          2                    0.99974275268229462  0.020335212924595478  0.0096056335757796173
                 228917.86432766711               -1.4920779092449624e-17            -2.5926371591698849e-20              6                                    0                                  3                                   0                                      9                                   1.9991094526384375e-18          1.9191855602671194e-21             0.7161909697240717                     0.7161909697240717                       0.7161909697240717             -3.029149975417635e-17      100.00000000000001       93.969262078590845        34.202014332566876        0                       1.3369692023528024e-17    8                            2                          2                    0.999727068190019    0.020973087930347727  0.0094543067049466956
                 239614.94310436922               -1.2670097958070656e-17             2.2506811343789688e-18              6                                    0                                  4                                   1                                      10                                  1.9991094526384375e-18          1.9191855602671194e-21             0.7161909697240717                     0.7161909697240717                       0.7161909697240717             -2.8040818619797382e-17      100.00000000000001       86.602540378443877        50                        0                       1.3369692023528024e-17    9                            0                          3                    0.999727068190019    0.020973087930347727  0.0094543067049466956
                 238989.44540689272               -1.2674751426660023e-17            -4.6534685893677696e-21              7                                    0                                  4                                   0                                      11                                  1.9990972317507532e-18          2.0623933310848699e-21             0.74153743987845311                    0.74153743987845311                      0.74153743987845311            -2.8042887559033814e-17      100.00000000000001       86.602540378443877        50                        0                       1.3366976507291953e-17    10                           1                          3                    0.99972378591281663  0.021108081703503607  0.0094337534258861384
                 234605.51531224392               -1.2707066005449858e-17            -3.2314578789834945e-20              8                                    0                                  4                                   0                                      12                                  1.9990087260913122e-18          3.2094609798155505e-21             0.91895928561149964                    0.91895928561149964                      0.91895928561149964            -2.8057336952649303e-17      100.00000000000001       86.602540378443877        50                        0                       1.3348052760128319e-17    11                           2                          3                    0.99969962925337041  0.022053009365973937  0.0092898695868439476
                 244652.19523046815               -9.6094009553412315e-18             3.0976650501086267e-18              8                                    0                                  5                                   1                                      13                                  1.9990087260913122e-18          3.2094609798155505e-21             0.91895928561149964                    0.91895928561149964                      0.91895928561149964            -2.4959671902540678e-17      100                      76.604444311897808        64.278760968653927        0                       1.3348052760128319e-17    12                           0                          4                    0.99969962925337041  0.022053009365973937  0.0092898695868439476
                 244063.8847169292                -9.6152328059419001e-18            -5.8318506006697225e-21              9                                    0                                  5                                   0                                      14                                  1.9989923285380463e-18          3.3833047303561455e-21             0.94250907331901379                    0.94250907331901379                      0.94250907331901379            -2.4963118886323856e-17      100                      76.604444311897808        64.278760968653927        0                       1.3345510447113551e-17    13                           1                          4                    0.99969519602010437  0.022225872525217048  0.0092703589077461016
                 239984.93191322268               -9.6558083606570768e-18            -4.0575554715176419e-20              10                                   0                                  5                                   0                                      15                                  1.9988733347044718e-18          4.7290199235375164e-21             1.1073539808971438                     1.1073539808971438                       1.1073539808971438             -2.4987211477034431e-17      100                      76.604444311897808        64.278760968653927        0                       1.3327800761749344e-17    14                           2                          4                    0.99966271457585398  0.023435876697446248  0.0091337710042842021
                 249086.58740946502               -5.8053562407001104e-18             3.8504521199569664e-18              10                                   0                                  6                                   1                                      16                                  1.9988733347044718e-18          4.7290199235375164e-21             1.1073539808971438                     1.1073539808971438                       1.1073539808971438             -2.1136759357077463e-17      100                      64.278760968653941        76.604444311897808        0                       1.3327800761749344e-17    15                           0                          5                    0.99966271457585398  0.023435876697446248  0.0091337710042842021
                 248540.5507036073                -5.8124613508507358e-18            -7.105110150625275e-21              11                                   0                                  6                                   0                                      17                                  1.9988527917289995e-18          4.9285413515563909e-21             1.1293706200074931                     1.1293706200074931                       1.1293706200074931             -2.1141654320636909e-17      100                      64.278760968653941        76.604444311897808        0                       1.3325411636705616e-17    16                           1                          5                    0.99965715320117388  0.023640228279624025  0.0091152487165379794
                 244711.88867021745               -5.8619602756598424e-18            -4.9498924809106227e-20              12                                   0                                  6                                   0                                      18                                  1.9987034942917757e-18          6.4411278902163014e-21             1.283483093197231                      1.283483093197231                        1.283483093197231              -2.1175882216826211e-17      100                      64.278760968653941        76.604444311897808        0                       1.3308777318984378e-17    17                           2                          5                    0.99961649026474664  0.025070640571583504  0.0089855772045048764
                 252485.66856509107               -1.3747198750420652e-18             4.4872404006177768e-18              12                                   0                                  7                                   1                                      19                                  1.9987034942917757e-18          6.4411278902163014e-21             1.283483093197231                      1.283483093197231                        1.283483093197231              -1.6688641816208435e-17      100                      50.000000000000014        86.602540378443862        0                       1.3308777318984378e-17    18                           0                          6                    0.99961649026474664  0.025070640571583504  0.0089855772045048764
                 251976.68095905407               -1.3830320987003334e-18            -8.3122236582681662e-21              13                                   0                                  7                                   0                                      20                                  1.9986788731675987e-18          6.6629815732549968e-21             1.3042222309078673                     1.3042222309078673                       1.3042222309078673             -1.6694893467685091e-17      100                      50.000000000000014        86.602540378443862        0                       1.3306519514243902e-17    19                           1                          6                    0.99960982831979417  0.025300073888728014  0.0089679586586315363
                 248406.78832164401               -1.44099191880668e-18            -5.7959820106346455e-20              14                                   0                                  7                                   0                                      21                                  1.998499843889867e-18          8.3217032711911706e-21             1.4493916434828424                     1.4493916434828424                       1.4493916434828424             -1.6738621349570804e-17      100                      50.000000000000014        86.602540378443862        0                       1.3290807883603066e-17    20                           2                          6                    0.99956119457749681  0.026906046616548156  0.0088446112117830204
# Table End
