# ODT 1.0
# Table Start
# Title: mmArchive Data Table, Wed Jun 16 18:45:24 EDT 2010
# Columns: {Oxs_CGEvolve:evolve:Max mxHxm} {Oxs_CGEvolve:evolve:Total energy} {Oxs_CGEvolve:evolve:Delta E} {Oxs_CGEvolve:evolve:Bracket count} {Oxs_CGEvolve:evolve:Line min count} {Oxs_CGEvolve:evolve:Cycle count} {Oxs_CGEvolve:evolve:Cycle sub count} {Oxs_CGEvolve:evolve:Energy calc count} Oxs_UniaxialAnisotropy::Energy Oxs_UniformExchange::Energy {Oxs_UniformExchange::Max Spin Ang} {Oxs_UniformExchange::Stage Max Spin Ang} {Oxs_UniformExchange::Run Max Spin Ang} Oxs_StageZeeman::Energy {Oxs_StageZeeman::B max} {Oxs_StageZeeman::Bx max} {Oxs_StageZeeman::By max} {Oxs_StageZeeman::Bz max} Oxs_Demag::Energy    Oxs_MinDriver::Iteration {Oxs_MinDriver::Stage iteration} Oxs_MinDriver::Stage Oxs_MinDriver::mx    Oxs_MinDriver::my    Oxs_MinDriver::mz   
# Units:                 A/m                               J                                J                               {}                                   {}                                 {}                                  {}                                     {}                                  J                             J                              deg                                    deg                                      deg                              J                       mT                       mT                        mT                        mT                     J                       {}                           {}                         {}                 {}                   {}                   {}           
                 225987.96611037999                1.2244250610416196e-17             1.2244250610416196e-17              0                                    0                                  1                                   1                                      1                                   1.9992003998001003e-18          0                               0                                      0                                        0                              -3.1992002998750549e-18      250                      250                       0                         0                       1.3444250510491151e-17    0                            0                          0                    0.99975009371095458  0.019995001874219091  0.0099975009371095457
                 225257.86308567144                1.2240948419153493e-17            -3.3021912627047414e-21              1                                    0                                  1                                   1                                      2                                   1.9992008055526436e-18          3.739376305943619e-24             0.032155932906714403                    0.032155932906714403                      0.032155932906714403            -3.1992026328240384e-18      250                      250                       0                         0                       1.344094650704858e-17    1                            1                          0                    0.99975039139073263  0.01998968048047102  0.0099767871902016105
                 220143.02623861734                1.2218140070144934e-17            -2.2808349008558103e-20              2                                    0                                  1                                   1                                      3                                   1.999202535536194e-18          2.3931351480258257e-22             0.25724276068328433                    0.25724276068328433                      0.25724276068328433            -3.1992188286700959e-18      250                      250                       0                         0                       1.3417917049764034e-17    2                            2                          0                    0.99975158602106939  0.01995241286146859  0.0098317822276820805
                 220143.02623861734                1.225572090138445e-17             3.7580831239515771e-20              2                                    0                                  2                                   2                                      4                                   1.999202535536194e-18          2.3931351480258257e-22             0.25724276068328433                    0.25724276068328433                      0.25724276068328433            -3.16163799743058e-18      250                      246.20193825305202        43.412044416732584        0                       1.3417917049764034e-17    3                            0                          1                    0.99975158602106939  0.01995241286146859  0.0098317822276820805
                 219428.40337447394                1.2252453217257939e-17            -3.26768412651134e-21              3                                    0                                  2                                   0                                      5                                   1.999202189417568e-18          3.0170762681139289e-22             0.28831912912390206                    0.28831912912390206                      0.28831912912390206            -3.1616968357003515e-18      250                      246.20193825305202        43.412044416732584        0                       1.341464615591391e-17    4                            1                          1                    0.99975152433133652  0.019952476756695786  0.0098108970211540358
                 214422.11910921181                1.2229886659277202e-17            -2.2566557980735675e-20              4                                    0                                  2                                   0                                      6                                   1.999198559112019e-18          9.4623645178318561e-22             0.50584922677768762                    0.50584922677768762                      0.50584922677768762            -3.1621073877681501e-18      250                      246.20193825305202        43.412044416732584        0                       1.3391849251481551e-17    5                            2                          1                    0.99975018932410609  0.019952905792169507  0.0096646918517504978
                 214422.11910921181                1.2363024278043922e-17             1.3313761876672038e-19              4                                    0                                  3                                   1                                      7                                   1.999198559112019e-18          9.4623645178318561e-22             0.50584922677768762                    0.50584922677768762                      0.50584922677768762            -3.0289697690014301e-18      250                      234.9231551964771         85.505035831417175        0                       1.3391849251481551e-17    6                            0                          2                    0.99975018932410609  0.019952905792169507  0.0096646918517504978
                 213722.62418123861                1.2359646370223694e-17            -3.3779078202294374e-21              5                                    0                                  3                                   0                                      8                                   1.9991973967188561e-18          1.0675786426593502e-21             0.53589862610766692                    0.53589862610766692                      0.53589862610766692            -3.0292316981594374e-18      250                      234.9231551964771         85.505035831417175        0                       1.3388613093021616e-17    7                            1                          2                    0.99974975660230858  0.019958450075748667  0.0096436500715714971
                 208822.42204071186                1.2336325499672866e-17            -2.3320870550827141e-20              6                                    0                                  3                                   0                                      9                                   1.9991877883164786e-18          2.1339653361960404e-21             0.74624015317557912                    0.74624015317557912                      0.74624015317557912            -3.0310596754457539e-18      250                      234.9231551964771         85.505035831417175        0                       1.3366063421465947e-17    8                            2                          2                    0.99974576901570655  0.019997240441994222  0.0094963485282339808
                 208822.42204071186                1.256046380209713e-17             2.2413830242426388e-19              6                                    0                                  4                                   1                                      10                                  1.9991877883164786e-18          2.1339653361960404e-21             0.74624015317557912                    0.74624015317557912                      0.74624015317557912            -2.8069213730214901e-18      250                      216.50635094610968        124.99999999999999        0                       1.3366063421465947e-17    9                            0                          3                    0.99974576901570655  0.019997240441994222  0.0094963485282339808
                 208137.70924082462                1.2556858378688453e-17            -3.6054234086776136e-21              7                                    0                                  4                                   0                                      11                                  1.9991856896458404e-18          2.3186149327995968e-21             0.77531160305912172                    0.77531160305912172                      0.77531160305912172            -2.8075107735377991e-18      250                      216.50635094610968        124.99999999999999        0                       1.3362864847647612e-17    10                           1                          3                    0.99974494000817848  0.020008194302032784  0.0094751645774615954
                 203341.16601556295                1.2531973947554276e-17            -2.4884431134177579e-20              8                                    0                                  4                                   0                                      12                                  1.9991691149504648e-18          3.8446820507342964e-21             0.97880769010314528                    0.97880769010314528                      0.97880769010314528            -2.8116249248658219e-18      250                      216.50635094610968        124.99999999999999        0                       1.3340585075418898e-17    11                           2                          3                    0.99973808646901763  0.020084848977167037  0.0093268671858296546
                 203341.16601556295                1.2839975594540084e-17             3.0800164698580904e-19              8                                    0                                  5                                   1                                      13                                  1.9991691149504648e-18          3.8446820507342964e-21             0.97880769010314528                    0.97880769010314528                      0.97880769010314528            -2.5036232778800127e-18      250                      191.51111077974451        160.6969024216348         0                       1.3340585075418898e-17    12                           0                          4                    0.99973808646901763  0.020084848977167037  0.0093268671858296546
                 202670.90215152979                1.2836065335762558e-17            -3.9102587775256342e-21              9                                    0                                  5                                   0                                      14                                  1.9991659176167236e-18          4.0992146841803037e-21             1.0069466498002353                     1.0069466498002353                       1.0069466498002353             -2.5046275906907571e-18      250                      191.51111077974451        160.6969024216348         0                       1.3337427794152412e-17    13                           1                          4                    0.9997368256426018   0.020100974883621954  0.0093055547673335202
                 197975.68507348106                1.2809081379406611e-17            -2.6983956355947282e-20              10                                   0                                  5                                   0                                      15                                  1.99914112830449e-18          6.1343883671497832e-21             1.2039155046815546                     1.2039155046815546                       1.2039155046815546             -2.5116398304133803e-18      250                      191.51111077974451        160.6969024216348         0                       1.3315445693148352e-17    14                           2                          4                    0.99972682993634532  0.020213829479874369  0.0091563572565560095
                 197975.68507348106                1.3191521900986024e-17             3.8244052157941371e-19              10                                   0                                  6                                   1                                      16                                  1.99914112830449e-18          6.1343883671497832e-21             1.2039155046815546                     1.2039155046815546                       1.2039155046815546             -2.1291993088339668e-18      250                      160.69690242163483        191.51111077974451        0                       1.3315445693148352e-17    15                           0                          5                    0.99972682993634532  0.020213829479874369  0.0091563572565560095
                 197319.55501046835                1.3187277296601203e-17            -4.2446043848228405e-21              11                                   0                                  6                                   0                                      17                                  1.999136649412746e-18          6.4655917926538565e-21             1.2311639035702491                     1.2311639035702491                       1.2311639035702491             -2.1306586916208913e-18      250                      160.69690242163483        191.51111077974451        0                       1.3312333747016694e-17    16                           1                          5                    0.99972509694377065  0.020234726467344911  0.0091349292212310751
                 192723.45960062966                1.3157985606568405e-17            -2.929169003279665e-20              12                                   0                                  6                                   0                                      18                                  1.9991023043328897e-18          9.0568812721934525e-21             1.4218990250791657                     1.4218990250791657                       1.4218990250791657             -2.1408518723649701e-18      250                      160.69690242163483        191.51111077974451        0                       1.3290678293328293e-17    17                           2                          5                    0.99971166179642401  0.020380972358628128  0.008984921480350426
                 192723.45960062966                1.3603486736780714e-17             4.4550113021230925e-19              12                                   0                                  7                                   1                                      19                                  1.9991023043328897e-18          9.0568812721934525e-21             1.4218990250791657                     1.4218990250791657                       1.4218990250791657             -1.6953507421526608e-18      250                      125.00000000000003        216.50635094610965        0                       1.3290678293328293e-17    18                           0                          6                    0.99971166179642401  0.020380972358628128  0.008984921480350426
                 192081.1709211377                 1.3598928470543214e-17            -4.5582662375000005e-21              13                                   0                                  7                                   0                                      20                                  1.9990963687916921e-18          9.4698084079592524e-21             1.4482953086209489                     1.4482953086209489                       1.4482953086209489             -1.6972531398207668e-18      250                      125.00000000000003        216.50635094610965        0                       1.3287615433164331e-17    19                           1                          6                    0.99970941854441475  0.020406082913095615  0.0089633897358934907
                 187582.15331767645                1.356746590333893e-17            -3.1462567204285067e-20              14                                   0                                  7                                   0                                      21                                  1.9990512410565637e-18          1.2648571984660902e-20             1.6330658082206027                     1.6330658082206027                       1.6330658082206027             -1.7105462216718526e-18      250                      125.00000000000003        216.50635094610965        0                       1.3266312311969558e-17    20                           2                          6                    0.99969227731499133  0.020581815761112725  0.0088126551799273551
# Table End
