# ODT 1.0
# Table Start
# Title: mmArchive Data Table, Wed Jun 16 18:45:48 EDT 2010
# Columns: {Oxs_CGEvolve:evolve:Max mxHxm} {Oxs_CGEvolve:evolve:Total energy} {Oxs_CGEvolve:evolve:Delta E} {Oxs_CGEvolve:evolve:Bracket count} {Oxs_CGEvolve:evolve:Line min count} {Oxs_CGEvolve:evolve:Cycle count} {Oxs_CGEvolve:evolve:Cycle sub count} {Oxs_CGEvolve:evolve:Energy calc count} Oxs_UniaxialAnisotropy::Energy Oxs_UniformExchange::Energy {Oxs_UniformExchange::Max Spin Ang} {Oxs_UniformExchange::Stage Max Spin Ang} {Oxs_UniformExchange::Run Max Spin Ang} Oxs_StageZeeman::Energy {Oxs_StageZeeman::B max} {Oxs_StageZeeman::Bx max} {Oxs_StageZeeman::By max} {Oxs_StageZeeman::Bz max} Oxs_Demag::Energy    Oxs_MinDriver::Iteration {Oxs_MinDriver::Stage iteration} Oxs_MinDriver::Stage Oxs_MinDriver::mx    Oxs_MinDriver::my    Oxs_MinDriver::mz   
# Units:                 A/m                               J                                J                               {}                                   {}                                 {}                                  {}                                     {}                                  J                             J                              deg                                    deg                                      deg                              J                       mT                       mT                        mT                        mT                     J                       {}                           {}                         {}                 {}                   {}                   {}           
                 292898.31015750527                1.52834908952975e-17             1.52834908952975e-17              0                                    0                                  1                                   1                                      1                                   1.9992003998001003e-18          0                               0                                      0                                        0                              -1.5996001499375276e-19      100                      0                         100                       0                       1.3444250510491151e-17    0                            0                          0                    0.99975009371095458  0.019995001874219091  0.0099975009371095457
                 292372.99023278104                1.5279058285379168e-17            -4.4326099183306127e-21              1                                    0                                  1                                   1                                      2                                   1.9991959117311811e-18          2.4954803769245752e-24             0.024810162699209715                    0.024810162699209715                      0.024810162699209715            -1.6185134217987639e-19      100                      0                         100                       0                       1.3441711220347487e-17    1                            1                          0                    0.99974912248205983  0.020050619803945399  0.0099817441698404306
                 288688.37560443248                1.524822435724231e-17            -3.08339281368584e-20              2                                    0                                  1                                   1                                      3                                   1.9991622712113732e-18          1.5970806900246511e-22             0.19847914163680308                    0.19847914163680308                      0.19847914163680308            -1.7509015925627178e-19      100                      0                         100                       0                       1.3423992537218207e-17    2                            2                          0                    0.99974140385815791  0.020439925139236946  0.0098714377182536946
                 221611.76367297443                1.5263782066824953e-17             1.5557709582641764e-20              2                                    0                                  2                                   2                                      4                                   1.9991622712113732e-18          1.5970806900246511e-22             0.19847914163680308                    0.19847914163680308                      0.19847914163680308            -1.5953244967362999e-19      100                      0                         100                       0                       1.3423992537218207e-17    3                            0                          1                    0.99974140385815791  0.020439925139236946  0.0098714377182536946
                 220892.02215200476                1.5258180181363478e-17            -5.6018854614751122e-21              3                                    0                                  2                                   0                                      5                                   1.9991560960856514e-18          2.0392885849220279e-22             0.22978846504386746                    0.22978846504386746                      0.22978846504386746            -1.6197243726807341e-19      100                      0                         100                       0                       1.3420792593687406e-17    4                            1                          1                    0.99973992066102946  0.020513442246942369  0.0098508887299555443
                 215849.64440368203                1.5219339104538474e-17            -3.8841076825002343e-20              4                                    0                                  2                                   0                                      6                                   1.9991091324243806e-18          7.7272212667266885e-22             0.4489492044084023                     0.4489492044084023                       0.4489492044084023             -1.7905187242287968e-19      100                      0                         100                       0                       1.33985091224103e-17    5                            2                          1                    0.99972800095863501  0.021028028494642532  0.009707030935255179
                 215849.64440368203                1.5239423385042612e-17             2.0084280504139356e-20              4                                    0                                  3                                   1                                      7                                   1.9991091324243806e-18          7.7272212667266885e-22             0.4489492044084023                     0.4489492044084023                       0.4489492044084023             -1.5896759191874031e-19      100                      0                         100                       0                       1.33985091224103e-17    6                            0                          2                    0.99972800095863501  0.021028028494642532  0.009707030935255179
                 215145.54791453926                1.523384050430596e-17            -5.5828807366552555e-21              5                                    0                                  3                                   0                                      8                                   1.9991025312945947e-18          8.7127983775953622e-22             0.47922176281790624                    0.47922176281790624                      0.47922176281790624            -1.6147431554529619e-19      100                      0                         100                       0                       1.33953410087189e-17    7                            1                          2                    0.9997262437686063   0.021103261552047621  0.0096863037591758076
                 210213.05495484325                1.5195130406433795e-17            -3.87100978721646e-20              6                                    0                                  3                                   0                                      9                                   1.9990524013201727e-18          1.8182303369137017e-21             0.69112536113894352                    0.69112536113894352                      0.69112536113894352            -1.7902087619714006e-19      100                      0                         100                       0                       1.3373280650973848e-17    8                            2                          2                    0.99971237048549511  0.02162985853080146  0.0095411985802683688
                 277755.577515062                  1.5214329401659251e-17             1.9198995225456457e-20              6                                    0                                  4                                   1                                      10                                  1.9990524013201727e-18          1.8182303369137017e-21             0.69112536113894352                    0.69112536113894352                      0.69112536113894352            -1.598218809716836e-19      100                      0                         100                       0                       1.3373280650973848e-17    9                            0                          3                    0.99971237048549511  0.02162985853080146  0.0095411985802683688
                 277271.07688790897                1.5210013537094369e-17            -4.3158645648806587e-21              7                                    0                                  4                                   0                                      11                                  1.9990470366886242e-18          1.9322606298393787e-21             0.71328545033008683                    0.71328545033008683                      0.71328545033008683            -1.6182123209690745e-19      100                      0                         100                       0                       1.3370855471872813e-17    10                           1                          3                    0.99971082712156722  0.021688126885658576  0.0095253812348391424
                 273872.11851083289                1.5179982419237636e-17            -3.00311178567339e-20              8                                    0                                  4                                   0                                      12                                  1.999007039143795e-18          2.8595439583394375e-21             0.86841163589773018                    0.86841163589773018                      0.86841163589773018            -1.7581614765417163e-19      100                      0                         100                       0                       1.3353931983789673e-17    11                           2                          3                    0.99969907910770295  0.022095982692910451  0.0094146508933054419
# Table End
