# ODT 1.0
# Table Start
# Title: mmArchive Data Table, Wed Jun 16 18:46:02 EDT 2010
# Columns: {Oxs_CGEvolve:evolve:Max mxHxm} {Oxs_CGEvolve:evolve:Total energy} {Oxs_CGEvolve:evolve:Delta E} {Oxs_CGEvolve:evolve:Bracket count} {Oxs_CGEvolve:evolve:Line min count} {Oxs_CGEvolve:evolve:Cycle count} {Oxs_CGEvolve:evolve:Cycle sub count} {Oxs_CGEvolve:evolve:Energy calc count} Oxs_UniformExchange::Energy {Oxs_UniformExchange::Max Spin Ang} {Oxs_UniformExchange::Stage Max Spin Ang} {Oxs_UniformExchange::Run Max Spin Ang} Oxs_UniaxialAnisotropy::Energy Oxs_Demag::Energy    Oxs_UZeeman::Energy  Oxs_UZeeman::B       Oxs_UZeeman::Bx      Oxs_UZeeman::By      Oxs_UZeeman::Bz      Oxs_MinDriver::Iteration {Oxs_MinDriver::Stage iteration} Oxs_MinDriver::Stage Oxs_MinDriver::mx    Oxs_MinDriver::my    Oxs_MinDriver::mz   
# Units:                 A/m                               J                                J                               {}                                   {}                                 {}                                  {}                                     {}                                 J                              deg                                    deg                                      deg                                 J                        J                     J                 mT                   mT                   mT                   mT                        {}                           {}                         {}                 {}                   {}                   {}           
                 167841.51342460784               -1.4233225277021377e-15            -1.4233225277021377e-15              0                                    0                                  1                                   1                                      1                                 0                               0                                      0                                        0                                   1.9801980198019803e-19       2.9093079113625921e-16 -1.7144513386403772e-15  50.007616402258023   50.000000000000007   0.87275325000000015  0                      0                            0                          0                    0.99503719020998926  0.099503719020998943  0                  
                 167370.18200601498               -1.4233721802343646e-15            -4.9652532226716525e-20              1                                    0                                  1                                   1                                      2                                 5.1020716307883289e-23             0.067038319093351603                    0.067038319093351603                      0.067038319093351603                 1.9792235749580025e-19       2.9088466008751046e-16 -1.714454813700087e-15  50.007616402258023   50.000000000000007   0.87275325000000015  0                      1                            1                          0                    0.99503963846242705  0.099479206429055722  1.855750695231003e-26
                 164072.92023387447               -1.4237143209350025e-15            -3.421407006381102e-19              2                                    0                                  1                                   1                                      3                                 3.265260676161842e-21             0.53630243327757432                    0.53630243327757432                      0.53630243327757432                 1.9724685865739582e-19       2.9056401883400304e-16 -1.7144788518883392e-15  50.007616402258023   50.000000000000007   0.87275325000000015  0                      2                            2                          0                    0.99505660952773711  0.099307601541549467  2.7110097112939871e-25
                 164134.18110562736               -1.3894247438972359e-15             3.4289577037766781e-17              2                                    0                                  2                                   2                                      4                                 3.265260676161842e-21             0.53630243327757432                    0.53630243327757432                      0.53630243327757432                 1.9724685865739582e-19       2.9056401883400304e-16 -1.6801892748505723e-15  49.007464074212862   49.000000000000007   0.8552981850000001   0                      3                            0                          1                    0.99505660952773711  0.099307601541549467  2.7110097112939871e-25
                 163671.25879197943               -1.389472281818753e-15            -4.7537921517152093e-20              3                                    0                                  2                                   0                                      5                                 4.113799691268497e-21             0.60198378575253519                    0.60198378575253519                      0.60198378575253519                 1.9715096020422702e-19       2.9051906557129549e-16 -1.6801926121499439e-15  49.007464074212862   49.000000000000007   0.8552981850000001   0                      4                            1                          1                    0.99505901877252978  0.099283003712865039 -8.0684812836130561e-25
                 160433.0922536806                -1.3897998366973435e-15            -3.2755487859064367e-19              4                                    0                                  2                                   0                                      6                                 1.2794663873455173e-20             1.0617496049026753                     1.0617496049026753                       1.0617496049026753                  1.9648614263542547e-19       2.9020658017117035e-16 -1.6802156976750229e-15  49.007464074212862   49.000000000000007   0.8552981850000001   0                      5                            2                          1                    0.99507572028818025  0.099110802457045344  2.6593714310788634e-24
                 160500.23205700782               -1.3555097204182614e-15             3.4290116279082099e-17              4                                    0                                  3                                   1                                      7                                 1.2794663873455173e-20             1.0617496049026753                     1.0617496049026753                       1.0617496049026753                  1.9648614263542547e-19       2.9020658017117035e-16 -1.6459255813959408e-15  48.007311746167701   48.000000000000007   0.83784312000000005  0                      6                            0                          2                    0.99507572028818025  0.099110802457045344  2.6593714310788634e-24
                 160045.9465671588                -1.35555522605925e-15            -4.5505640988434184e-20              5                                    0                                  3                                   0                                      8                                 1.4390563476902096e-20             1.1260447590136908                     1.1260447590136908                       1.1260447590136908                  1.9639175595741944e-19       2.9016277693775522e-16 -1.6459287853164394e-15  48.007311746167701   48.000000000000007   0.83784312000000005  0                      7                            1                          2                    0.99507809137327119  0.099086126166143124 -2.2979034695729985e-24
                 156868.44878261795               -1.3558687709579654e-15            -3.1354489871543647e-19              6                                    0                                  3                                   0                                      9                                 2.818713505084209e-20             1.5761074968848665                     1.5761074968848665                       1.5761074968848665                  1.9573738168918102e-19       2.8985825304575873e-16 -1.6459509485204642e-15  48.007311746167701   48.000000000000007   0.83784312000000005  0                      8                            2                          2                    0.99509452922236241  0.09891337596248026 -8.8301459167861287e-24
                 156941.46452142324               -1.3215781261971225e-15             3.4290644760843005e-17              6                                    0                                  4                                   1                                      10                                2.818713505084209e-20             1.5761074968848665                     1.5761074968848665                       1.5761074968848665                  1.9573738168918102e-19       2.8985825304575873e-16 -1.6116603037596211e-15  47.007159418122541   47                   0.82038805500000012  0                      9                            0                          3                    0.99509452922236241  0.09891337596248026 -8.8301459167861287e-24
                 156496.03257225742               -1.3216216822765416e-15            -4.3556079419148169e-20              7                                    0                                  4                                   0                                      11                                3.0480050042999996e-20             1.6389878800725686                     1.6389878800725686                       1.6389878800725686                  1.9564447630850567e-19       2.8981557164732868e-16 -1.6116633784502216e-15  47.007159418122541   47                   0.82038805500000012  0                      10                           1                          3                    0.99509686289890942  0.098888628823765062 -3.9503284364569522e-24
                 153380.69780201404               -1.3219217954105757e-15            -3.0011313403417808e-19              8                                    0                                  4                                   0                                      12                                4.904032404275123e-20             2.0791465156461606                     2.0791465156461606                       2.0791465156461606                  1.9500033419784327e-19       2.8951881197068181e-16 -1.6116846480394982e-15  47.007159418122541   47                   0.82038805500000012  0                      11                           2                          3                    0.99511304227852559  0.09871538297109192  1.9441812500994022e-23
                 153459.58479438935               -1.287630632686331e-15             3.4291162724244638e-17              8                                    0                                  5                                   1                                      13                                4.904032404275123e-20             2.0791465156461606                     2.0791465156461606                       2.0791465156461606                  1.9500033419784327e-19       2.8951881197068181e-16 -1.5773934853152534e-15  46.007007090077387   46                   0.80293299000000007  0                      12                           0                          4                    0.99511304227852559  0.09871538297109192  1.9441812500994022e-23
                 153023.21032496943               -1.2876723222024332e-15            -4.1689516102088648e-20              9                                    0                                  5                                   0                                      14                                5.1979844430535939e-20             2.1405839843695671                     2.1405839843695671                       2.1405839843695671                  1.9490888377549187e-19       2.8947722376045352e-16 -1.5773964346910927e-15  46.007007090077387   46                   0.80293299000000007  0                      13                           1                          4                    0.99511533919215234  0.098690573482216784 -9.5014435595827354e-24
                 150055.12587645237               -1.2879595833761496e-15            -2.8726117371643359e-19              10                                   0                                  5                                   0                                      15                                7.4951597681418382e-20             2.5706424290386862                     2.5706424290386862                       2.5706424290386862                  1.942747920430113e-19       2.8918802796133639e-16 -1.5774168377272104e-15  46.007007090077387   46                   0.80293299000000007  0                      14                           2                          4                    0.99513126455170642  0.098516891461209011  4.3117963979628174e-24
                 150056.19286564781               -1.2536679129907755e-15             3.4291670385374138e-17              10                                   0                                  6                                   1                                      16                                7.4951597681418382e-20             2.5706424290386862                     2.5706424290386862                       2.5706424290386862                  1.942747920430113e-19       2.8918802796133639e-16 -1.5431251673418363e-15  45.006854762032226   45                   0.78547792500000013  0                      15                           0                          5                    0.99513126455170642  0.098516891461209011  4.3117963979628174e-24
                 149645.93406846351               -1.2537078191008938e-15            -3.9906110118452054e-20              11                                   0                                  6                                   0                                      17                                7.848738295337771e-20             2.6306098832610028                     2.6306098832610028                       2.6306098832610028                  1.9418477474258096e-19       2.8914750382541316e-16 -1.5431279950840031e-15  45.006854762032226   45                   0.78547792500000013  0                      16                           1                          5                    0.99513352523364762  0.098492029043610874  2.0913503487125043e-24
                 147007.15293272116               -1.2539828088506865e-15            -2.7498974979252966e-19              12                                   0                                  6                                   0                                      18                                1.0551912400899581e-19             3.0503784836621088                     3.0503784836621088                       3.0503784836621088                  1.9356058353055607e-19       2.8886566842479149e-16 -1.5431475569830175e-15  45.006854762032226   45                   0.78547792500000013  0                      17                           2                          5                    0.99514920021253372  0.098317976800446391 -3.0982968129074136e-24
                 146980.20360857583               -1.2196906409177304e-15             3.4292167932955944e-17              12                                   0                                  7                                   1                                      19                                1.0551912400899581e-19             3.0503784836621088                     3.0503784836621088                       3.0503784836621088                  1.9356058353055607e-19       2.8886566842479149e-16 -1.5088553890500615e-15  44.006702433987066   44                   0.76802286000000008  0                      18                           0                          6                    0.99514920021253372  0.098317976800446391 -3.0982968129074136e-24
                 146610.0714074609                -1.2197287826135177e-15            -3.8141695787278553e-20              13                                   0                                  7                                   0                                      20                                1.0959411187400642e-19             3.1087515283058331                     3.1087515283058331                       3.1087515283058331                  1.9347213136394924e-19       2.8882624519515367e-16 -1.5088580940519095e-15  44.006702433987066   44                   0.76802286000000008  0                      19                           1                          6                    0.99515142132970691  0.098293113763201739  1.755701527314201e-24
                 144018.88659068957               -1.2199916458596178e-15            -2.628632461000011e-19              14                                   0                                  7                                   0                                      21                                1.4028025665087365e-19             3.5173595682013516                     3.5173595682013516                       3.5173595682013516                  1.9285874865017874e-19       2.8855202259237596e-16 -1.5088768074572948e-15  44.006702433987066   44                   0.76802286000000008  0                      20                           2                          6                    0.99516682300075565  0.098119057507186469 -4.0277858567796379e-24
# Table End
