# ODT 1.0
# Table Start
# Title: mmArchive Data Table, Wed Jun 16 18:46:06 EDT 2010
# Columns: {Oxs_CGEvolve::Max mxHxm} {Oxs_CGEvolve::Total energy} {Oxs_CGEvolve::Delta E} {Oxs_CGEvolve::Bracket count} {Oxs_CGEvolve::Line min count} {Oxs_CGEvolve::Cycle count} {Oxs_CGEvolve::Cycle sub count} {Oxs_CGEvolve::Energy calc count} Oxs_UniaxialAnisotropy::Energy Oxs_UniformExchange::Energy {Oxs_UniformExchange::Max Spin Ang} {Oxs_UniformExchange::Stage Max Spin Ang} {Oxs_UniformExchange::Run Max Spin Ang} Oxs_Demag::Energy    Oxs_MinDriver::Iteration {Oxs_MinDriver::Stage iteration} Oxs_MinDriver::Stage Oxs_MinDriver::mx    Oxs_MinDriver::my    Oxs_MinDriver::mz   
# Units:              A/m                         J                          J                         {}                             {}                           {}                            {}                               {}                               J                             J                              deg                                    deg                                      deg                           J                       {}                           {}                         {}                 {}                   {}                   {}           
              94305859.970747948          8.3395014656393809e-14       8.3395014656393809e-14        0                              0                            1                             1                                1                                6.6812759070755507e-17          8.2994982786608102e-14             179.65004826348246                     179.65004826348246                       179.65004826348246             3.3321911071495695e-16    0                            0                          0                   -0.0010821396544795905  0.0011025038669728469 -0.0032518676227447987
              94297330.817402795          8.3376583352445291e-14      -1.8431303948520622e-17        1                              0                            1                             1                                2                                6.6812607449001874e-17          8.2976552473384037e-14             179.65364233638326                     179.65364233638326                       179.65364233638326             3.3321827161226039e-16    1                            1                          0                   -0.001082762816874914  0.0011024787809036719 -0.0032553060971987351
              94270821.952037632          8.3321289334608802e-14      -5.5294017836489912e-17        2                              0                            1                             1                                3                                6.6812152243047643e-17          8.292126143076576e-14             179.6643181525651                      179.6643181525651                        179.6643181525651              3.332157515999947e-16    2                            2                          0                   -0.0010846310605564795  0.0011024043075470705 -0.0032656175185750464
# Table End
