# ODT 1.0
# Table Start
# Title: mmArchive Data Table, Wed Jun 16 18:46:15 EDT 2010
# Columns: {Oxs_CGEvolve:evolve:Max mxHxm} {Oxs_CGEvolve:evolve:Total energy} {Oxs_CGEvolve:evolve:Delta E} {Oxs_CGEvolve:evolve:Bracket count} {Oxs_CGEvolve:evolve:Line min count} {Oxs_CGEvolve:evolve:Cycle count} {Oxs_CGEvolve:evolve:Cycle sub count} {Oxs_CGEvolve:evolve:Energy calc count} Oxs_Exchange6Ngbr::Energy {Oxs_Exchange6Ngbr::Max Spin Ang} {Oxs_Exchange6Ngbr::Stage Max Spin Ang} {Oxs_Exchange6Ngbr::Run Max Spin Ang} Oxs_Demag::Energy    Oxs_MinDriver::Iteration {Oxs_MinDriver::Stage iteration} Oxs_MinDriver::Stage Oxs_MinDriver::mx    Oxs_MinDriver::my    Oxs_MinDriver::mz   
# Units:                 A/m                               J                                J                               {}                                   {}                                 {}                                  {}                                     {}                                J                            deg                                  deg                                    deg                          J                       {}                           {}                         {}                 {}                   {}                   {}           
                 4375822.6536104735                2.6528824384726575e-16             2.6528824384726575e-16              0                                    0                                  1                                   1                                      1                                8.9990497561410534e-17           24.051596648932641                   24.051596648932641                     24.051596648932641            1.752977462858552e-16    0                            0                          0                    0.79499236612620228  0.53433798483705308  0.26827581608977336
                 4366015.7139226617                2.6478264380798779e-16            -5.0560003927794899e-19              1                                    0                                  1                                   1                                      2                                8.9490766474746174e-17           24.006672190352557                   24.051596648932641                     24.051596648932641            1.752918773332416e-16    1                            1                          0                    0.7950083893551797   0.53435156127451444  0.26829176367335383
                 4297297.4440141032                2.6128764654505427e-16            -3.494997262933499e-18              2                                    0                                  1                                   1                                      3                                8.6036790980190724e-17           23.692204959096557                   24.051596648932641                     24.051596648932641            1.7525085556486356e-16    2                            2                          0                    0.79511897674614029  0.53444551977089538  0.26840285905545835
# Table End
