# ODT 1.0
# Table Start
# Title: mmArchive Data Table, Wed Jun 16 18:46:21 EDT 2010
# Columns: {Oxs_CGEvolve:evolve:Max mxHxm} {Oxs_CGEvolve:evolve:Total energy} {Oxs_CGEvolve:evolve:Delta E} {Oxs_CGEvolve:evolve:Bracket count} {Oxs_CGEvolve:evolve:Line min count} {Oxs_CGEvolve:evolve:Cycle count} {Oxs_CGEvolve:evolve:Cycle sub count} {Oxs_CGEvolve:evolve:Energy calc count} Oxs_Exchange6Ngbr::Energy {Oxs_Exchange6Ngbr::Max Spin Ang} {Oxs_Exchange6Ngbr::Stage Max Spin Ang} {Oxs_Exchange6Ngbr::Run Max Spin Ang} Oxs_Demag::Energy    Oxs_MinDriver::Iteration {Oxs_MinDriver::Stage iteration} Oxs_MinDriver::Stage Oxs_MinDriver::mx    Oxs_MinDriver::my    Oxs_MinDriver::mz   
# Units:                 A/m                               J                                J                               {}                                   {}                                 {}                                  {}                                     {}                                J                            deg                                  deg                                    deg                          J                       {}                           {}                         {}                 {}                   {}                   {}           
                 3296261.1707630646                3.345828604213901e-16             3.345828604213901e-16              0                                    0                                  1                                   1                                      1                                6.6680644391133525e-17           25.226514510633226                   25.226514510633226                     25.226514510633226            2.679022160302566e-16    0                            0                          0                    0.79505599380318792  0.53431246759983264  0.26807574448691002
                 3284634.4565590248                3.343019326428973e-16            -2.8092777849282526e-19              1                                    0                                  1                                   1                                      2                                6.6405918131942887e-17           25.185333860183114                   25.226514510633226                     25.226514510633226            2.6789601451095441e-16    1                            1                          0                    0.7950696596408694   0.53431602585035021  0.26808076940563785
                 3203113.2766848798                3.323554852056703e-16            -1.9464474372270042e-18              2                                    0                                  1                                   1                                      3                                6.4502858894624388e-17           24.897071665897538                   25.226514510633226                     25.226514510633226            2.6785262631104593e-16    2                            2                          0                    0.79516462570900537  0.5343404533306354   0.26811570455159861
# Table End
