# ODT 1.0
# Table Start
# Title: mmArchive Data Table, Wed Jun 16 18:46:09 EDT 2010
# Columns: {Oxs_CGEvolve:evolve:Max mxHxm} {Oxs_CGEvolve:evolve:Total energy} {Oxs_CGEvolve:evolve:Delta E} {Oxs_CGEvolve:evolve:Bracket count} {Oxs_CGEvolve:evolve:Line min count} {Oxs_CGEvolve:evolve:Cycle count} {Oxs_CGEvolve:evolve:Cycle sub count} {Oxs_CGEvolve:evolve:Energy calc count} Oxs_Exchange6Ngbr::Energy {Oxs_Exchange6Ngbr::Max Spin Ang} {Oxs_Exchange6Ngbr::Stage Max Spin Ang} {Oxs_Exchange6Ngbr::Run Max Spin Ang} Oxs_Demag::Energy    Oxs_MinDriver::Iteration {Oxs_MinDriver::Stage iteration} Oxs_MinDriver::Stage Oxs_MinDriver::mx    Oxs_MinDriver::my    Oxs_MinDriver::mz   
# Units:                 A/m                               J                                J                               {}                                   {}                                 {}                                  {}                                     {}                                J                            deg                                  deg                                    deg                          J                       {}                           {}                         {}                 {}                   {}                   {}           
                 4317420.6591478446                2.3367841937695807e-16             2.3367841937695807e-16              0                                    0                                  1                                   1                                      1                                8.4359691693355777e-17           25.226514510633226                   25.226514510633226                     25.226514510633226            1.4931872768360228e-16    0                            0                          0                    0.79480990984151401  0.53461782667277091  0.26823530877261098
                 4307301.5815109685                2.3321292258712541e-16            -4.6549678983263026e-19              1                                    0                                  1                                   1                                      2                                8.3895524165083679e-17           25.151021196796066                   25.226514510633226                     25.226514510633226            1.4931739842204176e-16    1                            1                          0                    0.79483232794945813  0.53462620137321881  0.26824261636512398
                 4236386.4696497144                2.2999604799423054e-16            -3.2168745928948746e-18              2                                    0                                  1                                   1                                      3                                8.0687938545417527e-17           24.622580211073597                   25.226514510633226                     25.226514510633226            1.4930810944881302e-16    2                            2                          0                    0.79498766332983228  0.53468372588973123  0.26829322140251571
# Table End
