# ODT 1.0
# Table Start
# Title: mmArchive Data Table, Wed Jun 16 18:46:12 EDT 2010
# Columns: {Oxs_CGEvolve:evolve:Max mxHxm} {Oxs_CGEvolve:evolve:Total energy} {Oxs_CGEvolve:evolve:Delta E} {Oxs_CGEvolve:evolve:Bracket count} {Oxs_CGEvolve:evolve:Line min count} {Oxs_CGEvolve:evolve:Cycle count} {Oxs_CGEvolve:evolve:Cycle sub count} {Oxs_CGEvolve:evolve:Energy calc count} Oxs_Exchange6Ngbr::Energy {Oxs_Exchange6Ngbr::Max Spin Ang} {Oxs_Exchange6Ngbr::Stage Max Spin Ang} {Oxs_Exchange6Ngbr::Run Max Spin Ang} Oxs_Demag::Energy    Oxs_MinDriver::Iteration {Oxs_MinDriver::Stage iteration} Oxs_MinDriver::Stage Oxs_MinDriver::mx    Oxs_MinDriver::my    Oxs_MinDriver::mz   
# Units:                 A/m                               J                                J                               {}                                   {}                                 {}                                  {}                                     {}                                J                            deg                                  deg                                    deg                          J                       {}                           {}                         {}                 {}                   {}                   {}           
                 4352658.5847309474                3.5743399156629984e-16             3.5743399156629984e-16              0                                    0                                  1                                   1                                      1                                1.2728815641998412e-16           25.226514510633226                   25.226514510633226                     25.226514510633226            2.3014583514631571e-16    0                            0                          0                    0.79481598173431611  0.53455878296891057  0.26835657809257751
                 4342467.1039316542                3.5675544192559767e-16            -6.7854964070215588e-19              1                                    0                                  1                                   1                                      2                                1.2661260054492199e-16           25.153404485614985                   25.226514510633226                     25.226514510633226            2.3014284138067571e-16    1                            1                          0                    0.79483742786140033  0.53456667221044774  0.26836477198149905
                 4271050.7500193743                3.5206392533773441e-16            -4.6915165878632564e-18              2                                    0                                  1                                   1                                      3                                1.2194204309964874e-16           24.641645378327564                   25.226514510633226                     25.226514510633226            2.3012188223808569e-16    2                            2                          0                    0.79498606299762187  0.53462086884142423  0.26842161681126542
# Table End
