# ODT 1.0
# Table Start
# Title: mmArchive Data Table, Wed Jun 16 18:46:17 EDT 2010
# Columns: {Oxs_CGEvolve:evolve:Max mxHxm} {Oxs_CGEvolve:evolve:Total energy} {Oxs_CGEvolve:evolve:Delta E} {Oxs_CGEvolve:evolve:Bracket count} {Oxs_CGEvolve:evolve:Line min count} {Oxs_CGEvolve:evolve:Cycle count} {Oxs_CGEvolve:evolve:Cycle sub count} {Oxs_CGEvolve:evolve:Energy calc count} Oxs_Exchange6Ngbr::Energy {Oxs_Exchange6Ngbr::Max Spin Ang} {Oxs_Exchange6Ngbr::Stage Max Spin Ang} {Oxs_Exchange6Ngbr::Run Max Spin Ang} Oxs_Demag::Energy    Oxs_MinDriver::Iteration {Oxs_MinDriver::Stage iteration} Oxs_MinDriver::Stage Oxs_MinDriver::mx    Oxs_MinDriver::my    Oxs_MinDriver::mz   
# Units:                 A/m                               J                                J                               {}                                   {}                                 {}                                  {}                                     {}                                J                            deg                                  deg                                    deg                          J                       {}                           {}                         {}                 {}                   {}                   {}           
                 4349622.1907856707                4.5162945635704823e-16             4.5162945635704823e-16              0                                    0                                  1                                   1                                      1                                1.6331800042389542e-16           25.226514510633226                   25.226514510633226                     25.226514510633226            2.8831145593315286e-16    0                            0                          0                    0.79501417310397471  0.53429804137826065  0.26826347577565474
                 4339795.0565217528                4.5078724645515213e-16            -8.4220990189616569e-19              1                                    0                                  1                                   1                                      2                                1.624807931520271e-16           25.15612063044793                    25.226514510633226                     25.226514510633226            2.8830645330312503e-16    1                            1                          0                    0.79503452686135945  0.53430694268654289  0.26827038195746633
                 4270934.8396601574                4.449614573085665e-16            -5.8257891465856375e-18              2                                    0                                  1                                   1                                      3                                1.5669000375962227e-16           24.663373680476525                   25.226514510633226                     25.226514510633226            2.8827145354894419e-16    2                            2                          0                    0.79517560470239435  0.53436828723753305  0.26831824373630164
# Table End
