# ODT 1.0
# Table Start
# Title: mmArchive Data Table, Wed Jun 16 19:08:40 EDT 2010
# Columns: {Oxs_RungeKuttaEvolve:evolve:Total energy} {Oxs_RungeKuttaEvolve:evolve:Energy calc count} {Oxs_RungeKuttaEvolve:evolve:Max dm/dt} Oxs_RungeKuttaEvolve:evolve:dE/dt {Oxs_RungeKuttaEvolve:evolve:Delta E} Oxs_UniaxialAnisotropy::Energy Oxs_UniformExchange::Energy {Oxs_UniformExchange::Max Spin Ang} {Oxs_UniformExchange::Stage Max Spin Ang} {Oxs_UniformExchange::Run Max Spin Ang} Oxs_ScriptUZeeman::Energy Oxs_ScriptUZeeman::B Oxs_ScriptUZeeman::Bx Oxs_ScriptUZeeman::By Oxs_ScriptUZeeman::Bz Oxs_TimeDriver::Iteration {Oxs_TimeDriver::Stage iteration} Oxs_TimeDriver::Stage Oxs_TimeDriver::mx   Oxs_TimeDriver::my   Oxs_TimeDriver::mz   {Oxs_TimeDriver::Last time step} {Oxs_TimeDriver::Simulation time}
# Units:                       J                                            {}                                        deg/ns                                 J/s                                  J                                 J                             J                              deg                                    deg                                      deg                               J                      mT                   mT                    mT                    mT                      {}                            {}                          {}                   {}                   {}                   {}                          s                                 s                
                       3.824621324621325e-21                          1                                           12.534976760299621                  -3.8843353502662963e-10                 0                                  3.824621324621325e-21          0                               0                                      0                                        0                                0                       0                    0                     0                     0                       0                             0                           0                     0.99498793460071167  0.099498793460071164  0.0099498793460071171        0                                0                         
                       3.5305067150786952e-21                          12                                          12.10026852956198                   -3.8772088157412793e-10                -2.9411460954263044e-22                3.8202706472313291e-21          2.4820375429339114e-28             0.00018137684260112295                    0.00018137684260112295                      0.00018137684260112295             -2.8976418035638879e-22     0.04761878380303871  0                     0.04761878380303871   0                       1                             1                           0                     0.99499365038942855  0.099429436269025867  0.010070831086916428        7.5787934685990771e-13              7.5787934685990771e-13       
                       2.3592527345421412e-21                          23                                          10.312789627447996                  -3.850432244602801e-10                -1.1712539805365538e-21                3.8041991812433718e-21          5.2380711258900057e-27             0.00089739287936250035                    0.00089739287936250035                      0.00089739287936250035             -1.4449516847723565e-21     0.23807232382591387  0                     0.23807232382591387   0                       2                             2                           0                     0.99501476426633817  0.099172895308367537  0.010503773890476324        3.0315173874396309e-12              3.789396734299539e-12       
                      -2.5546856036455529e-22                          34                                          6.1341578306102456                  -3.8001923441261414e-10                -2.6147212949066964e-21                3.7754722865857914e-21          2.6579909107231538e-26             0.0021659699616269944                    0.0021659699616269944                      0.0021659699616269944             -4.0309674268594536e-21     0.66720574647327846  0                     0.66720574647327846   0                       3                             3                           0                     0.99505250296779169  0.098718395606136641  0.011182987250049551        6.8374069361971949e-12              1.0626803670496734e-11       
                      -3.0060899803710994e-21                          45                                          2.1427343758703978                  -3.7620530853670967e-10                -2.7506214200065442e-21                3.7558946150823574e-21          4.2167630425837231e-26             0.0028874631289837484                    0.0028874631289837484                      0.0028874631289837484             -6.7620267630838823e-21     1.1225662079021363   0                     1.1225662079021363    0                       4                             4                           0                     0.99507822150492664  0.098426830066628876  0.011457579460520529        7.277130442049829e-12              1.7903934112546563e-11       
                      -4.5571035371953711e-21                          77                                          2.2112697741399407                  -3.7473144549428119e-10                -1.5510135568242722e-21                3.7497660744144951e-21          4.2406478281619531e-26             0.0029967985116528726                    0.0029967985116528726                      0.0029967985116528726             -8.3069120180881482e-21     1.3800974510818089   0                     1.3800974510818089    0                       5                             5                           0                     0.99508627231465396  0.098350921812304898  0.011410075953211567        4.1313300521991396e-12              2.2035264164745703e-11       
                      -5.9758632239164404e-21                          88                                          4.171490397933507                   -3.7380969708048695e-10                -1.4187596867210692e-21                3.7473742803063258e-21          3.7213250713267168e-26             0.0029063574436501006                    0.0029967985116528726                      0.0029967985116528726             -9.72327471747348e-21     1.6156046436500973   0                     1.6156046436500973    0                       6                             6                           0                     0.99508941438143605  0.098339057449269643  0.011238255809587032        3.791076845099985e-12              2.5826341009845686e-11       
                      -7.6594194451033708e-21                          99                                          6.8908666562932508                  -3.7323713625652576e-10                -1.6835562211869302e-21                3.7486885525601316e-21          2.685787887562724e-26             0.0026591728728708962                    0.0029967985116528726                      0.0029967985116528726             -1.1408134855542378e-20     1.8944315082436538   0                     1.8944315082436538    0                       7                             7                           0                     0.99508768803996706  0.098397556981579329  0.01087577815568236        4.5077948489035092e-12              3.0334135858749194e-11       
                      -9.9204026141167652e-21                          110                                         10.666931810333859                  -3.7333200967534707e-10                -2.2609831690133948e-21                3.7579701718792039e-21          1.517677923327947e-26             0.0023952081162599836                    0.0029967985116528726                      0.0029967985116528726             -1.3678387962775202e-20     2.2667306469778166   0                     2.2667306469778166    0                       8                             8                           0                     0.99507549529157402  0.098601512969866245  0.010121260983009648        6.0583083382187934e-12              3.6392444196967988e-11       
                      -1.3229661321502595e-20                          121                                         16.211420304743505                  -3.7514497144432277e-10                -3.3092587073858291e-21                3.788579339550192e-21          4.2917107821775282e-26             0.0037829623594460107                    0.0037829623594460107                      0.0037829623594460107             -1.7018283578160608e-20     2.8043198331328445   0                     2.8043198331328445    0                       9                             9                           0                     0.99503528368532934  0.099160062190288334  0.008478831873320665        8.8464127645752674e-12              4.5238856961543258e-11       
                      -1.6267648891888095e-20                          142                                         21.232424804617697                  -3.7837433235579308e-10                -3.0379875703854998e-21                3.8366953491330003e-21          1.8227614757252194e-25             0.0065743077042821271                    0.0065743077042821271                      0.0065743077042821271             -2.0104526517168668e-20     3.2869755230566433   0                     3.2869755230566433    0                       10                            10                          0                     0.99497206860407728  0.099941521603534325  0.0064354253199217079        8.0659799196753151e-12              5.330483688121857e-11       
                      -1.86265760912082e-20                          163                                         25.05163238777472                   -3.8176420359551747e-10                -2.3589271993201069e-21                3.8889305678090113e-21          4.1930208881570289e-25             0.0094209001240432404                    0.0094209001240432404                      0.0094209001240432404             -2.2515925961106027e-20     3.6527431874703558   0                     3.6527431874703558    0                       11                            11                          0                     0.99490343618711163  0.10072081941270138  0.0045179316359216827        6.2075678953935656e-12              5.9512404776612142e-11       
                      -2.0571159295415829e-20                          174                                         28.139448663228215                  -3.8504532277798353e-10                -1.9445832042076279e-21                3.9427487234997206e-21          7.3205728941431872e-25             0.012130874540637637                    0.012130874540637637                      0.012130874540637637             -2.4514640076204963e-20     3.9475207761260838   0                     3.9475207761260838    0                       12                            12                          0                     0.99483271835971232  0.10147280711975674  0.0027340385817261688        5.0723526578982551e-12              6.4584757434510387e-11       
                      -2.40780211259862e-20                          185                                         33.54535070709499                   -3.9183560432881953e-10                -3.5068618305703699e-21                4.0668206926561503e-21          1.6464028842651034e-24             0.017621968490472609                    0.017621968490472609                      0.017621968490472609             -2.8146488221526612e-20     4.4621931025228445   0                     4.4621931025228445    0                       13                            13                          0                     0.99466966559884029  0.10306813884863339 -0.00091072620415990268        9.0301767468979244e-12              7.3614934181408318e-11       
                      -2.6175641370660259e-20                          206                                         36.664228336974141                  -3.9629096580705013e-10                -2.0976202446740588e-21                4.1590928200493084e-21          2.4572960848195518e-24             0.021437745793348                      0.021437745793348                        0.021437745793348               -3.0337191486794385e-20     4.7589730746894681   0                     4.7589730746894681    0                       14                            14                          0                     0.99454838569690662  0.1041623340725919  -0.0033320790865651539        5.3233705889039857e-12              7.8938304770312299e-11       
                      -2.839682014256841e-20                          217                                         39.874991065734378                  -4.0121109589794066e-10                -2.221178771908153e-21                4.2727356716608628e-21          3.5711265148548654e-24             0.025694131342304496                    0.025694131342304496                      0.025694131342304496             -3.2673126940744127e-20     5.063830319468428    0                     5.063830319468428     0                       15                            15                          0                     0.99439899632866935  0.10542901115036106 -0.0060750688065481073        5.5705958203932225e-12              8.450890059070552e-11       
                      -3.2604352543776496e-20                          228                                         45.679727606951552                  -4.1075359000393197e-10                -4.2075324012080862e-21                4.5364998311211195e-21          6.515029786051636e-24             0.034374668648131476                    0.034374668648131476                      0.034374668648131476             -3.7147367404683668e-20     5.6142506169145756   0                     5.6142506169145756    0                       16                            16                          0                     0.9940521795048709   0.10811471894375294 -0.011725002821968379        1.0364453997667416e-11              9.4873354588372938e-11       
                      -3.4250139404014567e-20                          249                                         47.847275201717395                  -4.1445448228263763e-10                -1.6457868602380717e-21                4.658105526183009e-21          7.9996405060431588e-24             0.038111093489291197                    0.038111093489291197                      0.038111093489291197             -3.8916244570703624e-20     5.8198619024054379   0                     5.8198619024054379    0                       17                            17                          0                     0.99389224345545502  0.1092614154524323  -0.014081017171204187        3.9887628469698206e-12              9.8862117435342761e-11       
                      -3.7169531328224056e-20                          260                                         51.556684944157595                  -4.2082037236776929e-10                -2.9193919242094878e-21                4.9010192522553192e-21          1.1144082505466076e-23             0.044939706198131091                    0.044939706198131091                      0.044939706198131091             -4.2081694662984845e-20     6.1712846187222992   0                     6.1712846187222992    0                       18                            18                          0                     0.99357268797253218  0.11142078714567785 -0.018441496560347249        6.9899421147304101e-12              1.0585205955007318e-10       
                      -4.0812679248698815e-20                          271                                         55.955740394067206                  -4.2816859325195176e-10                -3.6431479204747583e-21                5.255760061837422e-21          1.6061990920651248e-23             0.053785085734270981                    0.053785085734270981                      0.053785085734270981             -4.6084501301456889e-20     6.5863646125776922   0                     6.5863646125776922    0                       19                            19                          0                     0.9931058436028255   0.11432934121351088 -0.024178667342855387        8.5811746292020934e-12              1.1443323417927526e-10       
                      -4.2516655760840278e-20                          292                                         57.887636467369589                  -4.3129270511741097e-10                -1.7039765121414658e-21                5.4424280592229716e-21          1.87688222264175e-23             0.058157767125794985                    0.058157767125794985                      0.058157767125794985             -4.797785264228967e-20     6.7717636918300377   0                     6.7717636918300377    0                       20                            20                          0                     0.99286010006172987  0.11576774917679228 -0.026965091900429613        3.9650621075024204e-12              1.1839829628677767e-10       
                      -4.3949145185050878e-20                          303                                         59.504842779860631                  -4.3373212226981363e-10                -1.4324894242105959e-21                5.6100325341158605e-21          2.1255830890903688e-23             0.061848424276149075                    0.061848424276149075                      0.061848424276149075             -4.9580433550057641e-20     6.923406095829578    0                     6.923406095829578     0                       21                            21                          0                     0.99263940273854079  0.11701434119161611 -0.029355113439064825        3.3119125304680851e-12              1.2171020881724576e-10       
                      -4.5615169256254506e-20                          314                                         61.302358822360901                  -4.3632915741539814e-10                -1.6660240712036294e-21                5.8176039750655795e-21          2.43997807510979e-23             0.066292691204407075                    0.066292691204407075                      0.066292691204407075             -5.1457173012071182e-20     7.0950050005410379   0                     7.0950050005410379    0                       22                            22                          0                     0.99236601165230531  0.11850639718016857 -0.032187189459228889        3.8294832984545175e-12              1.2553969211570028e-10       
                      -4.7468592772578236e-20                          325                                         63.260541444289579                  -4.3888274003528498e-10                -1.8534235163237293e-21                6.0650059563049126e-21          2.8226338037262106e-23             0.071379227902523823                    0.071379227902523823                      0.071379227902523823             -5.3561825066920413e-20     7.2799917872120776   0                     7.2799917872120776    0                       23                            23                          0                     0.9920400639381024   0.12021898453032188 -0.035401617218286885        4.2350838866430538e-12              1.2977477600234335e-10       
                      -4.9613347142310358e-20                          336                                         65.434980142661587                  -4.4134939072839855e-10                -2.1447543697321243e-21                6.373762750814184e-21          3.3103708599507274e-23             0.077325840027361467                    0.077325840027361467                      0.077325840027361467             -5.6020213601724051e-20     7.486442832492167    0                     7.486442832492167     0                       24                            24                          0                     0.99163313527567321  0.12226941256742575 -0.039202179493069797        4.8726617838969917e-12              1.3464743778624032e-10       
                      -5.223693805977386e-20                          347                                         67.981482412000361                  -4.4357495517443435e-10                -2.6235909174635021e-21                6.785689592269125e-21          3.9755066735590477e-23             0.084754495343839137                    0.084754495343839137                      0.084754495343839137             -5.9062382718778575e-20     7.7281491345225755   0                     7.7281491345225755    0                       25                            25                          0                     0.99108997736143734  0.12487745723498607 -0.043965487025550566        5.9285148758820457e-12              1.4057595266212237e-10       
                      -5.6027202174066422e-20                          358                                         71.440974231666033                  -4.4505180853483982e-10                -3.7902641142925631e-21                7.4513975128179826e-21          5.0774010201273507e-23             0.095732847621882666                    0.095732847621882666                      0.095732847621882666             -6.3529373697085676e-20     8.0569170387982396   0                     8.0569170387982396    0                       26                            26                          0                     0.99021156808636557  0.12884105132500187 -0.051063700041502048        8.5271303159030509e-12              1.4910308297802544e-10       
                      -5.9087782618610615e-20                          379                                         74.050331116130906                  -4.4454821282764979e-10                -3.0605804445441937e-21                8.0543015148490872e-21          6.0970256578553746e-23             0.10488336043961427                    0.10488336043961427                      0.10488336043961427             -6.720305439003826e-20     8.3053221263062937   0                     8.3053221263062937    0                       27                            27                          0                     0.98941536235342986  0.13221511547904244 -0.056981806055684155        6.8787169660940499e-12              1.5598179994411947e-10       
                      -6.4558710039260775e-20                          390                                         78.255160381006874                  -4.3924893992588456e-10                -5.4709274206501558e-21                9.2934203301375494e-21          8.2373948076196011e-23             0.12270650157710694                    0.12270650157710694                      0.12270650157710694             -7.3934504317474525e-20     8.7126013466685208   0                     8.7126013466685208    0                       28                            28                          0                     0.98777694970572671  0.13865894786617153 -0.067991988904742534        1.2366553113212494e-11              1.6834835305733198e-10       
                      -6.5597309611226741e-20                          411                                         79.168541301374347                  -4.375258307784035e-10                -1.0385995719659717e-21                9.5542355595111182e-21          8.6934894814764723e-23             0.12541008030466685                    0.12541008030466685                      0.12541008030466685             -7.5238480065552633e-20     8.7846924807086353   0                     8.7846924807086353    0                       29                            29                          0                     0.98743174207146311  0.1399464957795     -0.070148481892402303        2.3690288164126117e-12              1.7071738187374459e-10       
                      -6.6476639376749743e-20                          422                                         79.691840167689975                  -4.3587132535887202e-10                -8.7932976552299826e-22                9.7819425934231847e-21          9.0929899312461388e-23             0.12825330237055327                    0.12825330237055327                      0.12825330237055327             -7.6349511869485385e-20     8.8444356386704204   0                     8.8444356386704204    0                       30                            30                          0                     0.98713025615526695  0.14105377602211647 -0.071991915854817914        2.0135172275038851e-12              1.7273089910124847e-10       
                      -6.7400464173664258e-20                          433                                         80.272493959098412                  -4.339320303475948e-10                -9.238247969145124e-22                1.0028198854509169e-20          9.5262416646740009e-23             0.13176352466981045                    0.13176352466981045                      0.13176352466981045             -7.7523925444820166e-20     8.905926336776357    0                     8.905926336776357     0                       31                            31                          0                     0.9868041064145916   0.14223459301375846 -0.073946591577332799        2.1241333203773569e-12              1.7485503242162583e-10       
                      -6.836346100759395e-20                          444                                         81.024423442262076                  -4.3168260278613663e-10                -9.6299683392969202e-22                1.0292817858825624e-20          9.9930958729118042e-23             0.13483925536548799                    0.13483925536548799                      0.13483925536548799             -7.8756209825148686e-20     8.9686330356835544   0                     8.9686330356835544    0                       32                            32                          0                     0.9864535151272471   0.14348520766692965 -0.076004386079346467        2.2249047900965655e-12              1.7707993721172239e-10       
                      -6.9369215433495068e-20                          455                                         81.681377034025246                  -4.2907529653441348e-10                -1.005754425901125e-21                1.0578133262127484e-20          1.0497830396691131e-22             0.13797808950361282                    0.13797808950361282                      0.13797808950361282             -8.0052326999589474e-20     9.0326057839470391   0                     9.0326057839470391    0                       33                            33                          0                     0.98607536217452552  0.14481364404738098 -0.078176420946602113        2.3367897624491466e-12              1.7941672697417153e-10       
                      -7.042185939321337e-20                          466                                         82.301743270044526                  -4.2605158032159304e-10                -1.0526439597182961e-21                1.0886932589851903e-20          1.1045511926968875e-22             0.14179953089144873                    0.14179953089144873                      0.14179953089144873             -8.1419247102334961e-20     9.0978949572429233   0                     9.0978949572429233    0                       34                            34                          0                     0.98566591841308959  0.14622941470149506 -0.080475797340242364        2.4618218893829341e-12              1.8187854886355447e-10       
                      -7.1525317256547311e-20                          477                                         83.047755433899297                  -4.2254235540242747e-10                -1.1034578633339419e-21                1.1222311324677258e-20          1.1641812274255608e-22             0.14555100804263543                    0.14555100804263543                      0.14555100804263543             -8.2864046703967127e-20     9.1644977054185954   0                     9.1644977054185954    0                       35                            35                          0                     0.98522103691203378  0.14774270612133328 -0.08291616463425322        2.600506507225994e-12              1.8447905537078047e-10       
                      -7.2684489711474611e-20                          488                                         83.740207606105784                  -4.1846245858273745e-10                -1.1591724549272974e-21                1.1588119984156991e-20          1.2293768255525471e-22             0.149462963378139                      0.149462963378139                        0.149462963378139               -8.4395547378186854e-20     9.2324224501541607   0                     9.2324224501541607    0                       36                            36                          0                     0.98473555710474125  0.14936623833096482 -0.085514591717911162        2.7564324549698344e-12              1.8723548782575029e-10       
                      -7.3905954968237872e-20                          499                                         84.442740310456216                  -4.1370188131991264e-10                -1.2214652567632636e-21                1.1989365359410828e-20          1.3010474759481221e-22             0.15389297325758292                    0.15389297325758292                      0.15389297325758292             -8.602542507524351e-20     9.3017116646054969   0                     9.3017116646054969    0                       37                            37                          0                     0.98420276741233914  0.15111672466956544 -0.08829364577590508        2.9353800395905855e-12              1.9017086786534087e-10       