# ODT 1.0
# Table Start
# Title: mmArchive Data Table, Wed Jun 16 19:37:58 EDT 2010
# Columns: {Oxs_RungeKuttaEvolve:evolve:Total energy} {Oxs_RungeKuttaEvolve:evolve:Energy calc count} {Oxs_RungeKuttaEvolve:evolve:Max dm/dt} Oxs_RungeKuttaEvolve:evolve:dE/dt {Oxs_RungeKuttaEvolve:evolve:Delta E} Oxs_UniaxialAnisotropy::Energy Oxs_UniformExchange::Energy {Oxs_UniformExchange::Max Spin Ang} {Oxs_UniformExchange::Stage Max Spin Ang} {Oxs_UniformExchange::Run Max Spin Ang} Oxs_ScriptUZeeman::Energy Oxs_ScriptUZeeman::B Oxs_ScriptUZeeman::Bx Oxs_ScriptUZeeman::By Oxs_ScriptUZeeman::Bz Oxs_TimeDriver::Iteration {Oxs_TimeDriver::Stage iteration} Oxs_TimeDriver::Stage Oxs_TimeDriver::mx   Oxs_TimeDriver::my   Oxs_TimeDriver::mz   {Oxs_TimeDriver::Last time step} {Oxs_TimeDriver::Simulation time}
# Units:                       J                                            {}                                        deg/ns                                 J/s                                  J                                 J                             J                              deg                                    deg                                      deg                               J                      mT                   mT                    mT                    mT                      {}                            {}                          {}                   {}                   {}                   {}                          s                                 s                
                       3.824621324621325e-21                          1                                           12.534976760299621                  -3.8843353502662963e-10                 0                                  3.824621324621325e-21          0                               0                                      0                                        0                                0                       0                    0                     0                     0                       0                             0                           0                     0.99498793460071167  0.099498793460071164  0.0099498793460071171        0                                0                         
                       3.5305066441144623e-21                          3                                           12.100688806197802                  -3.8772087789682399e-10                -2.9411468050686305e-22                3.8202705736114593e-21          2.4828464090280632e-28             0.00018183678080355733                    0.00018183678080355733                      0.00018183678080355733             -2.8976417778163769e-22     0.04761878380303871  0                     0.04761878380303871   0                       1                             1                           0                     0.99499365048614807  0.099429435385527939  0.010070830254311285        7.5787934685990771e-13              7.5787934685990771e-13       
                       2.3592488258717318e-21                          5                                           10.326376004038599                  -3.8504299497383297e-10                -1.1712578182427304e-21                3.8041944195951594e-21          5.2615786394986138e-27             0.00088697089086172765                    0.00088697089086172765                      0.00088697089086172765             -1.4449508553020668e-21     0.23807232382591387  0                     0.23807232382591387   0                       2                             2                           0                     0.99501477052193898  0.099172838378456959  0.010503718932592393        3.0315173874396309e-12              3.789396734299539e-12       
                       9.4035436338367045e-22                          9                                           8.1566525836439041                  -3.8215011155912946e-10                -1.4188944624880613e-21                3.787377214332583e-21          1.6452948034264244e-26             0.0019640901487803638                    0.0019640901487803638                      0.0019640901487803638             -2.8470393038969471e-21     0.47035125627144636  0                     0.47035125627144636   0                       3                             3                           0                     0.99503686357353149  0.098905338177364424  0.010922060131607765        3.6992389295232248e-12              7.4886356638227638e-12       
                       3.2042734076332969e-22                          13                                          7.0413172712597261                  -3.8100973675191862e-10                -6.1992702262034066e-22                3.7809416886124888e-21          2.1860299717125555e-26             0.0022660512628349537                    0.0022660512628349537                      0.0022660512628349537             -3.4605362081488768e-21     0.57229235044685334  0                     0.57229235044685334   0                       4                             4                           0                     0.99504531789544703  0.098803887976708971  0.011067819872583923        1.6246592286341589e-12              9.1132948924569225e-12       
                      -2.5138784724100017e-22                          15                                          6.2032688810688503                  -3.8002538268083408e-10                -5.7181518800432986e-22                3.7754951265063741e-21          2.673150329861369e-26             0.0025855166919624174                    0.0025855166919624174                      0.0025855166919624174             -4.0269097052506727e-21     0.66653136110779143  0                     0.66653136110779143   0                       5                             5                           0                     0.99505247296381671  0.09871880308979103  0.011182068277385859        1.5027516557422781e-12              1.0616046548199201e-11       
                      -7.4791680995176469e-22                          17                                          5.3838320372448853                  -3.792235992001782e-10                -4.9652896271076452e-22                3.7711471539727334e-21          3.0677961651475591e-26             0.0026589125488670549                    0.0026589125488670549                      0.0026589125488670549             -4.5190946418861498e-21     0.74850684732245909  0                     0.74850684732245909   0                       6                             6                           0                     0.99505818479621921  0.098651623537229755  0.011265454759420925        1.3079619378716453e-12              1.1924008486070845e-11       
                      -1.1893567391764129e-21                          19                                          4.7036256910880514                  -3.7855234395160596e-10                -4.414399292246483e-22                3.7675799841623172e-21          3.385295648922715e-26             0.0029020042710616112                    0.0029020042710616112                      0.0029020042710616112             -4.9569705762952187e-21     0.82148640093205538  0                     0.82148640093205538   0                       7                             7                           0                     0.99506287088420176  0.098597190598354228  0.011327180764287877        1.1651036584863022e-12              1.3089112144557148e-11       
                      -1.5992230803929885e-21                          21                                          4.1223858482730362                  -3.7796427135507761e-10                -4.0986634121657546e-22                3.7645201615575696e-21          3.6455558016253382e-26             0.00283793632536441                    0.0029020042710616112                      0.0029020042710616112             -5.3637796975085739e-21     0.88931944656329609  0                     0.88931944656329609   0                       8                             8                           0                     0.99506689047050134  0.098551155547433905  0.011373994435518684        1.0835701796691576e-12              1.4172682324226306e-11       
                      -1.9902637892683041e-21                          23                                          3.4941175895092691                  -3.7743487704814196e-10                -3.9104070887531563e-22                3.7618280950051097e-21          3.8586915813905046e-26             0.0029135390613376729                    0.0029135390613376729                      0.0029135390613376729             -5.7521304711892278e-21     0.954094070704818    0                     0.954094070704818     0                       9                             9                           0                     0.9950704269382098   0.09851131337323954  0.011409206133400759        1.0353291916688303e-12              1.5208011515895136e-11       
                      -2.3633615035163276e-21                          25                                          2.9155755719996765                  -3.7695866976561416e-10                -3.7309771424802367e-22                3.7594672823311101e-21          4.0270600535583326e-26             0.003004260063748751                    0.003004260063748751                      0.003004260063748751             -6.1228690564479737e-21     1.0159411667184377   0                     1.0159411667184377    0                       10                            10                          0                     0.99507352824351458  0.098477041077563929  0.011434176197157933        9.8913904072795785e-13              1.6197150556623094e-11       
                      -2.7121433367259084e-21                          27                                          2.4895555772959139                  -3.7653905921866574e-10                -3.4878183320958069e-22                3.7574446587673096e-21          4.1515306869761371e-26             0.0029255037949195103                    0.003004260063748751                      0.003004260063748751             -6.4696295108000875e-21     1.0737906916052982   0                     1.0737906916052982    0                       11                            11                          0                     0.99507618527943009  0.098448330135205833  0.01144988543872825        9.2577253063499975e-13              1.7122923087258093e-11       
                      -3.0379681730008162e-21                          29                                          2.1407948522874478                  -3.7616940436942837e-10                -3.2582483627490772e-22                3.7557168995218245e-21          4.2378739409050277e-26             0.0028354429143388274                    0.003004260063748751                      0.003004260063748751             -6.7937274512620504e-21     1.1278563243799224   0                     1.1278563243799224    0                       12                            12                          0                     0.99507845496249281  0.098424432336897863  0.011457885747749894        8.6574395568170568e-13              1.7988667042939799e-11       
                      -3.3469508427657425e-21                          31                                          1.8898996616114763                  -3.7583879819769106e-10                -3.0898266976492643e-22                3.7542235352295333e-21          4.2924239443876981e-26             0.0029570160158788345                    0.003004260063748751                      0.003004260063748751             -7.10121730223472e-21     1.1791441290391829   0                     1.1791441290391829    0                       13                            13                          0                     0.99508041673037351  0.098404393150279518  0.011459508455001686        8.217570104676633e-13              1.8810424053407462e-11       
                      -3.6410704898304846e-21                          33                                          1.762775063431113                   -3.7554212861898542e-10                -2.9411964706474223e-22                3.7529339319489141e-21          4.3193921115387697e-26             0.0031027563003837833                    0.0031027563003837833                      0.0031027563003837833             -7.3940476157005139e-21     1.2279763495672344   0                     1.2279763495672344    0                       14                            14                          0                     0.99508211082661469  0.098387702288365089  0.01145565432096477        7.8288066759663484e-13              1.9593304721004098e-11       
                      -3.9245274968606346e-21                          35                                          1.7693478830999794                  -3.7527285183496279e-10                -2.8345700703014974e-22                3.7518135272778211e-21          4.3223929544575082e-26             0.0031419893470994806                    0.0031419893470994806                      0.0031419893470994806             -7.6763842480679999e-21     1.2750455952322088   0                     1.2750455952322088    0                       15                            15                          0                     0.99508358265503671  0.098373827283930598  0.011446953601381177        7.5506762067029138e-13              2.034837234167439e-11       
                      -4.2053445175675911e-21                          37                                          1.8994865028409724                  -3.7502217448715876e-10                -2.8081702070695649e-22                3.7508227597813885e-21          4.3033855062182442e-26             0.0030826143552800059                    0.0031419893470994806                      0.0031419893470994806             -7.9562103112040416e-21     1.3216804469875338   0                     1.3216804469875338    0                       16                            16                          0                     0.9950848841863269   0.098362230260646777  0.011433505558086867        7.4855361176234426e-13              2.1096925953436733e-11       
                      -4.4943742461323938e-21                          39                                          2.137986231989264                   -3.747808737030283e-10                -2.8902972856480279e-22                3.7499276771241402e-21          4.2614800326192576e-26             0.00306478803159747                    0.0031419893470994806                      0.0031419893470994806             -8.2443445380568599e-21     1.3696801018745519   0                     1.3696801018745519    0                       17                            17                          0                     0.99508606002285271  0.098352536388157843  0.011414644234878318        7.7095131990173997e-13              2.1867877273338473e-11       
                      -4.8029650471992463e-21                          41                                          2.4919242571642926                  -3.7454192250483835e-10                -3.0859080106685239e-22                3.7491125346156632e-21          4.1925643401812215e-26             0.00316202736997081                    0.00316202736997081                      0.00316202736997081             -8.5521195074583105e-21     1.4209256319279926   0                     1.4209256319279926    0                       18                            18                          0                     0.99508713084870171  0.0983447069204757   0.01138888510583352        8.2365607154700451e-13              2.2691533344885477e-11       
                      -5.1417895458329553e-21                          43                                          2.9360053225124974                  -3.7430173586734867e-10                -3.3882449863370939e-22                3.7483859294099726e-21          4.0895657354204275e-26             0.0031597731323209357                    0.00316202736997081                      0.00316202736997081             -8.8902163709002819e-21     1.4771839871623316   0                     1.4771839871623316    0                       19                            19                          0                     0.99508808537157833  0.098339120003444774  0.011353917111936023        9.0493191834409904e-13              2.3596465263229576e-11       
                      -5.521818651787962e-21                          45                                          3.4737527899136342                  -3.7405988297656077e-10                -3.8002910595500614e-22                3.7477825131128208e-21          3.9424839645187963e-26             0.0030306608465225622                    0.00316202736997081                      0.00316202736997081             -9.2696405897404275e-21     1.5402677119359569   0                     1.5402677119359569    0                       20                            20                          0                     0.99508887807315427  0.098336616644556549  0.01130637502510898        1.0156362529189438e-12              2.4612101516148521e-11       
                      -5.9445909101076067e-21                          47                                          4.1309326416587933                  -3.7382492610440862e-10                -4.2277225831964509e-22                3.7473767636962976e-21          3.7438330124042347e-26             0.0029947106937187862                    0.00316202736997081                      0.00316202736997081             -9.6920051121340289e-21     1.610417637960734    0                     1.610417637960734     0                       21                            21                          0                     0.99508941111679217  0.098338525901911764  0.011243156075007404        1.1305903678216666e-12              2.5742691883970186e-11       
                      -6.4162092976725151e-21                          49                                          4.8803247885945602                  -3.7360500228104466e-10                -4.716183875649083e-22                3.7472581498509995e-21          3.4856878748105277e-26             0.00291332074592952                    0.00316202736997081                      0.00316202736997081             -1.0163502304402263e-20     1.6886241596625744   0                     1.6886241596625744    0                       22                            22                          0                     0.99508956697330209  0.098346513723175003  0.01115981304801507        1.2619862016570867e-12              2.7004678085627275e-11       
                      -6.9428736636453149e-21                          51                                          5.7146295404808392                  -3.7341166096147355e-10                -5.2666436597279952e-22                3.7475479852828604e-21          3.1633052642747909e-26             0.0027784639959444898                    0.00316202736997081                      0.00316202736997081             -1.0690453281980817e-20     1.7758814422916336   0                     1.7758814422916336    0                       23                            23                          0                     0.99508918627933163  0.098362765116392956  0.01105079644957117        1.4100647871293644e-12              2.8414742872756638e-11       
                      -7.509942749852587e-21                          53                                          6.6276398585487355                  -3.7326463621864909e-10                -5.6706908620727212e-22                3.7483665685835947e-21          2.7932186630477078e-26             0.0028758710316174078                    0.00316202736997081                      0.00316202736997081             -1.1258337250622812e-20     1.8697197981377722   0                     1.8697197981377722    0                       24                            24                          0                     0.99508811100068773  0.098388945327704924  0.010914660955561048        1.5189373567361268e-12              2.9933680229492768e-11       
                      -8.1079072516091861e-21                          55                                          7.6357330188207628                  -3.7317759740647777e-10                -5.9796450175660002e-22                3.7498094979421706e-21          2.4020609896199498e-26             0.0026562578578950067                    0.00316202736997081                      0.00316202736997081             -1.1857740770161254e-20     1.9685171662994199   0                     1.9685171662994199    0                       25                            25                          0                     0.99508621554758137  0.098426337077464357  0.01075012487486455        1.6021977352529771e-12              3.1535877964745744e-11       
                      -8.7155651339271383e-21                          57                                          8.6740125002408011                  -3.7315980377822977e-10                -6.0765788231795154e-22                3.7518982355972999e-21          2.0351463142825167e-26             0.0026927170740681673                    0.00316202736997081                      0.00316202736997081             -1.2467483720987581e-20     2.068725776353423    0                     2.068725776353423     0                       26                            26                          0                     0.99508347171420553  0.098474653621611632  0.01056096426568974        1.6283997344434776e-12              3.3164277699189217e-11       
                      -9.320498594569747e-21                          59                                          9.6555720682043376                  -3.732118716488976e-10                -6.0493346064260866e-22                3.7546146685140952e-21          1.7358073802923409e-26             0.0025424858383776092                    0.00316202736997081                      0.00316202736997081             -1.3075130621157645e-20     2.1682654191889137   0                     2.1682654191889137    0                       27                            27                          0                     0.9950799032813572   0.098533105445288746  0.010350796229323452        1.6210239656593129e-12              3.4785301664848536e-11       
                      -9.9539079465723318e-21                          61                                          10.739731355771676                  -3.7333982047726165e-10                -6.3340935200258521e-22                3.7581560896806628e-21          1.5368623538065518e-26             0.0027661801542683967                    0.00316202736997081                      0.00316202736997081             -1.3712079404876533e-20     2.2722245365385709   0                     2.2722245365385709    0                       28                            28                          0                     0.99507525105729433  0.098605389319630227  0.010107524545194292        1.6969231532484039e-12              3.6482224818096939e-11       
                      -1.0612411419959013e-20                          63                                          11.855820811056907                  -3.7355101829342141e-10                -6.5850347338668134e-22                3.7626126531814451e-21          1.5107903336362024e-26             0.0027160143393255018                    0.00316202736997081                      0.00316202736997081             -1.4375039181043793e-20     2.379979489491272    0                     2.379979489491272     0                       29                            29                          0                     0.99506939658336546  0.09869255687509064  0.009829642789371219        1.7633522898876088e-12              3.8245577107984548e-11       
                      -1.1190029846736404e-20                          67                                          12.848470326958699                  -3.7380061552599246e-10                -5.776184267773911e-22                3.7671885658446427e-21          1.6799773872803105e-26             0.0028884939878184462                    0.00316202736997081                      0.00316202736997081             -1.4957235212354919e-20     2.4742001728383509   0                     2.4742001728383509    0                       30                            30                          0                     0.99506338525837768  0.098779100761020561  0.0095651219880733846        1.545796385480748e-12              3.9791373493465293e-11       
                      -1.172471046244934e-20                          69                                          13.695232300456862                  -3.7408418116250244e-10                -5.3468061571293452e-22                3.771993003390747e-21          2.0334094523172961e-26             0.0035192311720029694                    0.0035192311720029694                      0.0035192311720029694             -1.5496723799934611e-20     2.5611469074997588   0                     2.5611469074997588    0                       31                            31                          0                     0.99505707365772855  0.098867597338488836  0.0093031191805968486        1.4298649754985005e-12              4.1221238468963791e-11       
                      -1.2242495332254239e-20                          71                                          14.642884990775162                  -3.7440590632524225e-10                -5.1778486980489937e-22                3.7771783614674048e-21          2.5909864724019569e-26             0.003345000514705159                    0.0035192311720029694                      0.0035192311720029694             -1.6019699603586369e-20     2.6450812705008664   0                     2.6450812705008664    0                       32                            32                          0                     0.99505026157058307  0.098960965911892546  0.0090338270336262384        1.3835606515782923e-12              4.2604799120542088e-11       
                      -1.2757345193867744e-20                          73                                          15.429391887959163                  -3.7477078843242118e-10                -5.1484986161350459e-22                3.7828653200546028e-21          3.3932155437318066e-26             0.0040579217072746442                    0.0040579217072746442                      0.0040579217072746442             -1.6540244446077782e-20     2.7282654419591683   0                     2.7282654419591683    0                       33                            33                          0                     0.99504279044292121  0.099061267268545625  0.008751014073282333        1.3744569026740611e-12              4.3979256023216145e-11       
                      -1.3273993199567743e-20                          75                                          16.360611845443337                  -3.7518106860793863e-10                -5.1664800570000016e-22                3.7891158609448387e-21          4.4854456416331699e-26             0.004327610506887976                    0.004327610506887976                      0.004327610506887976             -1.7063153914968996e-20     2.8114496286214368   0                     2.8114496286214368    0                       34                            34                          0                     0.99503457882762714  0.099169375703760596  0.0084522773378959658        1.3778316195962885e-12              4.5357087642812437e-11       
                      -1.3790647602951683e-20                          77                                          17.166701466154318                  -3.7563456778238292e-10                -5.1665440338394092e-22                3.7959229415495525e-21          5.901017153846465e-26             0.0047391616110891441                    0.0047391616110891441                      0.0047391616110891441             -1.7586629554672775e-20     2.8943287902585153   0                     2.8943287902585153    0                       35                            35                          0                     0.9950256359545776   0.099284928852835103  0.0081387287615518732        1.3762633812258615e-12              4.6733351024038294e-11       
                      -1.4308132596456754e-20                          79                                          18.121251803280593                  -3.7613102035185158e-10                -5.174849935050697e-22                3.8033108749236153e-21          7.6782523648742434e-26             0.005535769937217095                    0.005535769937217095                      0.005535769937217095             -1.8111520253904018e-20     2.9770197476483808   0                     2.9770197476483808    0                       36                            36                          0                     0.99501592985809695  0.099408098875922529  0.007809993718905308        1.3767338651110006e-12              4.81100848891493e-11       
                      -1.4822767283362375e-20                          81                                          18.87367501913829                   -3.7666548080366535e-10                -5.1463468690562257e-22                3.8112359881141477e-21          9.8412582803851358e-26             0.0055494431553959151                    0.0055494431553959151                      0.0055494431553959151             -1.8634101684059326e-20     3.0589221462076028   0                     3.0589221462076028    0                       37                            37                          0                     0.99500551788975211  0.099537932361152534  0.0074686627342161844        1.3672754450252045e-12              4.94773603341745e-11       