# ODT 1.0
# Table Start
# Title: mmArchive Data Table, Wed Jun 16 19:38:02 EDT 2010
# Columns: {Oxs_RungeKuttaEvolve:evolve:Total energy} {Oxs_RungeKuttaEvolve:evolve:Energy calc count} {Oxs_RungeKuttaEvolve:evolve:Max dm/dt} Oxs_RungeKuttaEvolve:evolve:dE/dt {Oxs_RungeKuttaEvolve:evolve:Delta E} Oxs_UniaxialAnisotropy::Energy Oxs_UniformExchange::Energy {Oxs_UniformExchange::Max Spin Ang} {Oxs_UniformExchange::Stage Max Spin Ang} {Oxs_UniformExchange::Run Max Spin Ang} Oxs_ScriptUZeeman::Energy Oxs_ScriptUZeeman::B Oxs_ScriptUZeeman::Bx Oxs_ScriptUZeeman::By Oxs_ScriptUZeeman::Bz Oxs_TimeDriver::Iteration {Oxs_TimeDriver::Stage iteration} Oxs_TimeDriver::Stage Oxs_TimeDriver::mx   Oxs_TimeDriver::my   Oxs_TimeDriver::mz   {Oxs_TimeDriver::Last time step} {Oxs_TimeDriver::Simulation time}
# Units:                       J                                            {}                                        deg/ns                                 J/s                                  J                                 J                             J                              deg                                    deg                                      deg                               J                      mT                   mT                    mT                    mT                      {}                            {}                          {}                   {}                   {}                   {}                          s                                 s                
                       3.824621324621325e-21                          1                                           12.534976760299621                  -3.8843353502662963e-10                 0                                  3.824621324621325e-21          0                               0                                      0                                        0                                0                       0                    0                     0                     0                       0                             0                           0                     0.99498793460071167  0.099498793460071164  0.0099498793460071171        0                                0                         
                       3.5305066429919077e-21                          3                                           12.100688804374776                  -3.8772087784000919e-10                -2.9411468162941746e-22                3.8202705724468096e-21          2.4828461939607057e-28             0.00018183679450517446                    0.00018183679450517446                      0.00018183679450517446             -2.8976417773952118e-22     0.04761878380303871  0                     0.04761878380303871   0                       1                             1                           0                     0.99499365048767807  0.099429435371076111  0.010070830245829663        7.5787934685990771e-13              7.5787934685990771e-13       
                       2.3592487232068068e-21                          5                                           10.326376610654624                  -3.8504298749378231e-10                -1.1712579197851011e-21                3.8041942891587327e-21          5.2616132843794539e-27             0.00088697462194377459                    0.00088697462194377459                      0.00088697462194377459             -1.4449508275652103e-21     0.23807232382591387  0                     0.23807232382591387   0                       2                             2                           0                     0.99501477069329836  0.099172836474763992  0.010503720665887582        3.0315173874396309e-12              3.789396734299539e-12       
                       9.3963686824066879e-22                          9                                           8.1556686766385251                  -3.8214871541813213e-10                -1.419611854966138e-21                3.7873689113948176e-21          1.645978813487393e-26             0.0019647457535729705                    0.0019647457535729705                      0.0019647457535729705             -2.8477485029422838e-21     0.47046904573412857  0                     0.47046904573412857   0                       3                             3                           0                     0.99503687448111366  0.098905206846842619  0.010922254138768631        3.7011156846917596e-12              7.4905124189912978e-12       
                       3.2034722165573052e-22                          13                                          7.0410896316013467                  -3.8100955885259447e-10                -6.1928964658493818e-22                3.780940314454234e-21          2.1861631465461167e-26             0.0022659861231791646                    0.0022659861231791646                      0.0022659861231791646             -3.4606149544299692e-21     0.57230549884147464  0                     0.57230549884147464   0                       4                             4                           0                     0.99504531970066579  0.098803866294985054  0.011067850854575992        1.6229920802052696e-12              9.113504499196567e-12       
                      -2.5090672538198899e-22                          15                                          6.2041496119893509                  -3.8002614542780398e-10                -5.712539470377195e-22                3.7754988945769901e-21          2.6728118608594375e-26             0.0025856441294129723                    0.0025856441294129723                      0.0025856441294129723             -4.026432348077588e-21     0.66645195603123331  0                     0.66645195603123331   0                       5                             5                           0                     0.99505246801377512  0.098718861339013864  0.011181995293016897        1.5012754616665348e-12              1.0614779960863102e-11       
                      -7.4717375961768551e-22                          17                                          5.3851600419350962                  -3.7922472202957138e-10                -4.9626703423569653e-22                3.7711527490699978e-21          3.0672920457865852e-26             0.0026579359898530877                    0.0026579359898530877                      0.0026579359898530877             -4.5183571816081414e-21     0.74838405216766224  0                     0.74838405216766224   0                       6                             6                           0                     0.99505817744608571  0.098651708970424676  0.011265356974309446        1.3072686826807585e-12              1.1922048643543861e-11       
                      -1.1885561365358705e-21                          19                                          4.7043895586251381                  -3.7855348417562334e-10                -4.4138237691818492e-22                3.7675855295100156e-21          3.3848170968740722e-26             0.002901815436616495                    0.002901815436616495                      0.002901815436616495             -4.956175514216855e-21     0.82135394607599077  0                     0.82135394607599077   0                       7                             7                           0                     0.99506286359945106  0.098597273956154627  0.011327096190976793        1.1649482683609662e-12              1.3086996911904827e-11       
                      -1.5986973131959607e-21                          21                                          4.1230947725033378                  -3.7796496097145035e-10                -4.101411766600902e-22                3.7645232406655345e-21          3.645318879268254e-26             0.0028385796410278674                    0.002901815436616495                      0.002901815436616495             -5.3632570070502874e-21     0.88923237737273098  0                     0.88923237737273098   0                       8                             8                           0                     0.99506688642558361  0.098551200615046075  0.011373958340081447        1.0842941510673994e-12              1.4171291062972226e-11       
                      -1.9901807110094898e-21                          23                                          3.4943517683299143                  -3.7743494196093539e-10                -3.9148339781352899e-22                3.7618279337205921e-21          3.8587339585433931e-26             0.002913388695958041                    0.002913388695958041                      0.002913388695958041             -5.7520472320696667e-21     0.95408029787963922  0                     0.95408029787963922   0                       9                             9                           0                     0.99507042715007843  0.098511309875383563  0.011409217752738501        1.0365002470633501e-12              1.5207791310035578e-11       
                      -2.3633661214388751e-21                          25                                          2.9155120809501249                  -3.769586186226713e-10                -3.7318541042938525e-22                3.7594665268416582e-21          4.0271512327712891e-26             0.0030044129756741341                    0.0030044129756741341                      0.0030044129756741341             -6.1228729197928613e-21     1.0159419341991445   0                     1.0159419341991445    0                       10                            10                          0                     0.99507352923596393  0.098477028820289955  0.011434195180335638        9.8937152495147516e-13              1.6197162834987052e-11       
                      -2.7124546783466487e-21                          27                                          2.4890640862122821                  -3.7653864926639064e-10                -3.4908855690777392e-22                3.7574421896430627e-21          4.151722515032971e-26             0.0029257504119075428                    0.0030044129756741341                      0.0030044129756741341             -6.469938385214862e-21     1.0738423529358307   0                     1.0738423529358307    0                       11                            11                          0                     0.99507618852300561  0.098448293813150081  0.011449915413664446        9.2658724968648403e-13              1.7123750084673537e-11       
                      -3.0386791997994245e-21                          29                                          2.1400897564983379                  -3.7616857400899794e-10                -3.2622452145277582e-22                3.7557125431391464e-21          4.2381308212224726e-26             0.0028357025361609887                    0.0030044129756741341                      0.0030044129756741341             -6.7944341242467834e-21     1.1279743462500227   0                     1.1279743462500227    0                       12                            12                          0                     0.99507846068527428  0.098424370906978642  0.01145791584862265        8.6680739818098412e-13              1.799055748285452e-11       
                      -3.3479102507914179e-21                          31                                          1.8892864160734291                  -3.7583775383156499e-10                -3.0923105099199325e-22                3.7542183489870791e-21          4.2926558179715835e-26             0.0029573260817976348                    0.0030044129756741341                      0.0030044129756741341             -7.102171526336677e-21     1.1793034250278327   0                     1.1793034250278327    0                       13                            13                          0                     0.9950804235433035   0.098404322322024645  0.011459524544690406        8.224196583172386e-13              1.8812977141171759e-11       
                      -3.6419974398055342e-21                          33                                          1.7625976195579263                  -3.7554117271183825e-10                -2.9408718901411618e-22                3.7529292904450709e-21          4.3195449864733458e-26             0.0031028484545280997                    0.0031028484545280997                      0.0031028484545280997             -7.39496992570047e-21     1.2281302936798084   0                     1.2281302936798084    0                       14                            14                          0                     0.99508211692394577  0.098387640582631192  0.011455654303949814        7.8279636324813223e-13              1.959577350441989e-11       
                      -3.9251793207491875e-21                          35                                          1.7695398765219712                  -3.7527220209965966e-10                -2.831818809436533e-22                3.7518102980055657e-21          4.3224815507335197e-26             0.0031419028879784397                    0.0031419028879784397                      0.0031419028879784397             -7.6770328435702598e-21     1.2751538759806511   0                     1.2751538759806511    0                       15                            15                          0                     0.99508358689718113  0.098373784915771548  0.011446948742709094        7.5433636180192622e-13              2.0350109866221816e-11       
                      -4.205638274039101e-21                          37                                          1.8997148478425838                  -3.7502187070025458e-10                -2.804589532899135e-22                3.7508209832202549e-21          4.303462680226976e-26             0.00308263514568633                    0.0031419028879784397                      0.0031419028879784397             -7.9565022918861584e-21     1.3217292752443746   0                     1.3217292752443746    0                       16                            16                          0                     0.9950848865201054   0.098362206102852276  0.011433510101608948        7.4760009112626783e-13              2.1097709957348086e-11       
                      -4.4943966826919529e-21                          39                                          2.1380449565628257                  -3.7478080500681953e-10                -2.8875840865285187e-22                3.7499267980787803e-21          4.261585243301188e-26             0.0030645320483047435                    0.0031419028879784397                      0.0031419028879784397             -8.2443660966231667e-21     1.3696838786913101   0                     1.3696838786913101    0                       17                            17                          0                     0.99508606117759868  0.098352522373717999  0.011414664083780435        7.7022799779501093e-13              2.1867937955143097e-11       
                      -4.8029627469516675e-21                          41                                          2.4919475418214803                  -3.7454187273028724e-10                -3.0856606425971446e-22                3.749111710617509e-21          4.1926758032293202e-26             0.0031618667352678207                    0.0031618667352678207                      0.0031618667352678207             -8.552116384327208e-21     1.4209253088572849   0                     1.4209253088572849    0                       18                            18                          0                     0.99508713193113263  0.098344693366448771  0.011388907318280177        8.2359019520536223e-13              2.2691528150348459e-11       
                      -5.1421766744257722e-21                          43                                          2.9365740615250902                  -3.7430142201814818e-10                -3.3921392747410498e-22                3.7483843505131666e-21          4.0895460294224406e-26             0.0031597489347390201                    0.0031618667352678207                      0.0031618667352678207             -8.8906019203992325e-21     1.4772483277192814   0                     1.4772483277192814    0                       19                            19                          0                     0.9950880874457031   0.098339101478910854  0.011353895836130272        9.0597248372281074e-13              2.3597500634071268e-11       
                      -5.5214542691408948e-21                          45                                          3.4731869976906409                  -3.7406004659315383e-10                -3.7927759471512282e-22                3.7477821056351994e-21          3.9427531305472939e-26             0.0030310810879686815                    0.0031618667352678207                      0.0031618667352678207             -9.2692758023074005e-21     1.5402073162300056   0                     1.5402073162300056    0                       20                            20                          0                     0.99508887860839623  0.098336602705142218  0.011306448518700052        1.0136280458497145e-12              2.4611128679920984e-11       
                      -5.9437418930086427e-21                          47                                          4.1295599672768928                  -3.7382530526484427e-10                -4.2228762386774785e-22                3.747376377564468e-21          3.7443793520530982e-26             0.0029945305247531602                    0.0031618667352678207                      0.0031618667352678207             -9.6911557143666313e-21     1.6102768942616874   0                     1.6102768942616874    0                       21                            21                          0                     0.99508941162395026  0.098338501980191964  0.011243319099633749        1.1292935770171074e-12              2.574042225693809e-11       
                      -6.4158456222814815e-21                          49                                          4.8797445925660554                  -3.736050943995929e-10                -4.721037292728383e-22                3.7472571261877225e-21          3.4860202510657092e-26             0.002913637176641292                    0.0031618667352678207                      0.0031618667352678207             -1.0163137608671715e-20     1.6885639907412267   0                     1.6885639907412267    0                       22                            22                          0                     0.99508956831798712  0.098346489041305857  0.011159909852402087        1.2632842589660284e-12              2.7003706515904119e-11       
                      -6.9437481472892315e-21                          51                                          5.7160362129446982                  -3.7341131987855427e-10                -5.2790252500775003e-22                3.747547775105453e-21          3.1628836433940782e-26             0.0027785621617732715                    0.0031618667352678207                      0.0031618667352678207             -1.0691327551231118e-20     1.7760263891193879   0                     1.7760263891193879    0                       23                            23                          0                     0.99508918655549528  0.098362780923868423  0.011050631984483307        1.4133805210588958e-12              2.8417087036963014e-11       
                      -7.5096614268770344e-21                          53                                          6.6271480603299375                  -3.7326462122927948e-10                -5.6591327958780357e-22                3.7483648560529061e-21          2.7935297925052596e-26             0.0028757647396725804                    0.0031618667352678207                      0.0031618667352678207             -1.1258054218227866e-20     1.8696734534871313   0                     1.8696734534871313    0                       24                            24                          0                     0.99508811325031055  0.098388910609857563  0.010914768026818801        1.5158423539851842e-12              2.99329293909482e-11       
                      -8.1084021861480298e-21                          55                                          7.6365574418510365                  -3.7317747344021309e-10                -5.9874075927099493e-22                3.7498096269590725e-21          2.4018810986687394e-26             0.0026562644503239394                    0.0031618667352678207                      0.0031618667352678207             -1.1858235831918089e-20     1.9685990868877681   0                     1.9685990868877681    0                       25                            25                          0                     0.99508621537812225  0.098426350336106277  0.010750019702288217        1.6042784019337522e-12              3.1537207792881948e-11       
                      -8.7151844561926153e-21                          57                                          8.6733571106612981                  -3.7315970332786691e-10                -6.0678227004458533e-22                3.7518952607639022e-21          2.0354659821350779e-26             0.0026928025819828089                    0.0031618667352678207                      0.0031618667352678207             -1.2467100071616338e-20     2.06866333445342     0                     2.06866333445342      0                       26                            26                          0                     0.99508347562207278  0.098474595692368341  0.010561135294282582        1.62605414011198e-12              3.3163261932993932e-11       
                      -9.3212789861568874e-21                          59                                          9.6568513091840753                  -3.7321188458955646e-10                -6.0609452996427301e-22                3.7546169569271264e-21          1.7356070519928176e-26             0.0025426865074453624                    0.0031618667352678207                      0.0031618667352678207             -1.3075913299154535e-20     2.1683940016566354   0                     2.1683940016566354    0                       27                            27                          0                     0.9950799002751759   0.098533160428980721  0.010350562579127049        1.624136059713469e-12              3.4787397992707402e-11       
                      -9.9539016619548497e-21                          61                                          10.739732318147466                  -3.7333970932263139e-10                -6.3262267579796228e-22                3.758154224260191e-21          1.5369245651650389e-26             0.0027658769037032177                    0.0031618667352678207                      0.0031618667352678207             -1.3712071255460693e-20     2.2722239007802649   0                     2.2722239007802649    0                       28                            28                          0                     0.99507525350782655  0.098605358305435611  0.010107585636676531        1.6948164352046009e-12              3.6482214427912e-11       
                      -1.0613095300123918e-20                          63                                          11.8570106472067                    -3.7355115644937914e-10                -6.5919363816906798e-22                3.7626156366910059e-21          1.5109542213181915e-26             0.0027162448176188811                    0.0031618667352678207                      0.0031618667352678207             -1.4375726046357139e-20     2.3800916920537967   0                     2.3800916920537967    0                       29                            29                          0                     0.9950693926639661   0.09869261978512503  0.0098294078755196534        1.7652012725937418e-12              3.8247415700505745e-11       
                      -1.1191131017870426e-20                          67                                          12.850337748499388                  -3.7380101743971769e-10                -5.7803571774650835e-22                3.7671956578104897e-21          1.6805996248247627e-26             0.002889445928484041                    0.0031618667352678207                      0.0031618667352678207             -1.4958343481677166e-20     2.4743800599979831   0                     2.4743800599979831    0                       30                            30                          0                     0.99506337594166994  0.098779238122290267  0.0095646718046010805        1.5469126647358228e-12              3.9794328365241564e-11       
                      -1.1726197218892613e-20                          69                                          13.698317805452096                  -3.7408490180698145e-10                -5.3506620102218651e-22                3.7720047513162876e-21          2.0348118725421344e-26             0.003521084842029011                    0.003521084842029011                      0.003521084842029011             -1.5498222318327627e-20     2.5613889065251949   0                     2.5613889065251949    0                       31                            31                          0                     0.99505705822434376  0.098867815865418734  0.0093024449219861541        1.4308945461006267e-12              4.1225222911342192e-11       
                      -1.224344077761294e-20                          71                                          14.64460917601131                   -3.7440639209581821e-10                -5.17243558720326e-22                3.7771857895000149e-21          2.5922309118775232e-26             0.0033451989679188906                    0.003521084842029011                      0.003521084842029011             -1.6020652489422072e-20     2.6452349539999536   0                     2.6452349539999536    0                       32                            32                          0                     0.9950502518121731   0.098961102520733382  0.0090334027747802931        1.3821124972135677e-12              4.2607335408555757e-11       
                      -1.2758391546200289e-20                          73                                          15.431255045175675                  -3.7477142542353553e-10                -5.1495076858734934e-22                3.7828747514255698e-21          3.3950863085046523e-26             0.0040594992268434662                    0.0040594992268434662                      0.0040594992268434662             -1.6541300248488943e-20     2.7284349492272417   0                     2.7284349492272417    0                       33                            33                          0                     0.99504277805253927  0.099061435888507965  0.0087505097747904506        1.3747247948739151e-12              4.3982060203429678e-11       
                      -1.3274555954951589e-20                          75                                          16.361614538286322                  -3.7518138326982261e-10                -5.1616440875130031e-22                3.7891201436844628e-21          4.4866204441034066e-26             0.0043285264264664013                    0.0043285264264664013                      0.0043285264264664013             -1.7063720964840493e-20     2.8115408780537532   0                     2.8115408780537532    0                       34                            34                          0                     0.99503457320112276  0.099169452662108096  0.0084520339105343002        1.3765407605649504e-12              4.5358600963994624e-11       
                      -1.3791375035857462e-20                          77                                          17.167895427313304                  -3.7563507397944699e-10                -5.1681908090587339e-22                3.7959299351398526e-21          5.9030180924284457e-26             0.0047405047733212746                    0.0047405047733212746                      0.0047405047733212746             -1.7587364001178238e-20     2.8944461366418617   0                     2.8944461366418617    0                       35                            35                          0                     0.99502562676656958  0.099285049785322696  0.0081383715052475748        1.3767012013427382e-12              4.6735302165337365e-11       
                      -1.4308209866379791e-20                          79                                          18.121332169815069                  -3.7613092880040642e-10                -5.1683483052232887e-22                3.8033088652581121e-21          7.6780859997977059e-26             0.0055363047553761164                    0.0055363047553761164                      0.0055363047553761164             -1.81115955124979e-20     2.9770330229256681   0                     2.9770330229256681    0                       36                            36                          0                     0.99501593249831177  0.099408068659767673  0.0078100427255222895        1.3750040412430517e-12              4.8110306206580414e-11       
                      -1.4822814130211031e-20                          81                                          18.874115352846296                  -3.766653562762521e-10                -5.1460426383124134e-22                3.8112334067404173e-21          9.8408880263775947e-26             0.0055484576895562078                    0.0055484576895562078                      0.0055484576895562078             -1.8634145945831713e-20     3.0589306166413999   0                     3.0589306166413999    0                       37                            37                          0                     0.99500552128111019  0.099537893165137184  0.0074687347957841464        1.3671957261166583e-12              4.9477501932697075e-11       