# ODT 1.0
# Table Start
# Title: mmArchive Data Table, Wed Jun 16 18:46:44 EDT 2010
# Columns: {Oxs_RungeKuttaEvolve:evolve:Total energy} {Oxs_RungeKuttaEvolve:evolve:Energy calc count} {Oxs_RungeKuttaEvolve:evolve:Max dm/dt} Oxs_RungeKuttaEvolve:evolve:dE/dt {Oxs_RungeKuttaEvolve:evolve:Delta E} Oxs_UniaxialAnisotropy::Energy Oxs_UniformExchange::Energy {Oxs_UniformExchange::Max Spin Ang} {Oxs_UniformExchange::Stage Max Spin Ang} {Oxs_UniformExchange::Run Max Spin Ang} Oxs_ScriptUZeeman::Energy Oxs_ScriptUZeeman::B Oxs_ScriptUZeeman::Bx Oxs_ScriptUZeeman::By Oxs_ScriptUZeeman::Bz Oxs_TimeDriver::Iteration {Oxs_TimeDriver::Stage iteration} Oxs_TimeDriver::Stage Oxs_TimeDriver::mx   Oxs_TimeDriver::my   Oxs_TimeDriver::mz   {Oxs_TimeDriver::Last time step} {Oxs_TimeDriver::Simulation time}
# Units:                       J                                            {}                                        deg/ns                                 J/s                                  J                                 J                             J                              deg                                    deg                                      deg                               J                      mT                   mT                    mT                    mT                      {}                            {}                          {}                   {}                   {}                   {}                          s                                 s                
                       3.824621324621325e-21                          1                                           12.534976760299621                  -3.8843353502662963e-10                 0                                  3.824621324621325e-21          0                               0                                      0                                        0                                0                       0                    0                     0                     0                       0                             0                           0                     0.99498793460071167  0.099498793460071164  0.0099498793460071171        0                                0                         
                       3.5305067150787358e-21                          7                                           12.100268834849981                  -3.8772088157402216e-10                -2.9411460954258953e-22                3.8202706472313337e-21          2.4820379153150241e-28             0.00018137463103329115                    0.00018137463103329115                      0.00018137463103329115             -2.8976418035638936e-22     0.04761878380303871  0                     0.04761878380303871   0                       1                             1                           0                     0.99499365038942855  0.099429436269026047  0.010070831086915076        7.5787934685990771e-13              7.5787934685990771e-13       
                       2.3592527347753615e-21                          13                                          10.313263322814405                  -3.8504322432536544e-10                -1.1712539803033741e-21                3.8041991813161373e-21          5.2382482539720081e-27             0.00089501188537236844                    0.00089501188537236844                      0.00089501188537236844             -1.4449516847890295e-21     0.23807232382591387  0                     0.23807232382591387   0                       2                             2                           0                     0.99501476426624247  0.099172895309511885  0.010503773888644354        3.0315173874396309e-12              3.789396734299539e-12       
                      -1.4111516272133923e-21                          25                                          6.2702239016869061                  -3.7823176878063912e-10                -3.7704043619887541e-21                3.7659089712089612e-21          4.8714926711273994e-26             0.0068826663851579845                    0.0068826663851579845                      0.0068826663851579845             -5.1771093133490645e-21     0.8581885585925183   0                     0.8581885585925183    0                       3                             3                           0                     0.99506506603864575  0.098571914746272554  0.01135395735244975        9.8859197157278484e-12              1.3675316450027387e-11       
                      -2.5051963757536367e-21                          37                                          4.1333133732326663                  -3.7678679826926603e-10                -1.0940447485402443e-21                3.7586385367294261e-21          5.2285535173343689e-26             0.0061134725508131659                    0.0068826663851579845                      0.0068826663851579845             -6.2638871980182365e-21     1.0394651361042719   0                     1.0394651361042719    0                       4                             4                           0                     0.99507461693161936  0.098465157177303114  0.011441644099990529        2.898222732675884e-12              1.6573539182703271e-11       
                      -3.6039388077828493e-21                          43                                          2.9567246362394757                  -3.7558030874917294e-10                -1.0987424320292128e-21                3.7531053939847979e-21          5.2837976365672053e-26             0.0052358113054022321                    0.0068826663851579845                      0.0068826663851579845             -7.357097039744013e-21     1.2218128457284507   0                     1.2218128457284507    0                       5                             5                           0                     0.99508188558389543  0.098389867431548941  0.011456625001081957        2.9209260466524904e-12              1.9494465229355762e-11       
                      -4.6340148713334616e-21                          49                                          3.1723187996509385                  -3.7467197730262083e-10                -1.0300760635506119e-21                3.7495566600744949e-21          5.0170035431582915e-26             0.0046443861481074589                    0.0068826663851579845                      0.0068826663851579845             -8.3836217014433888e-21     1.3928711042597584   0                     1.3928711042597584    0                       6                             6                           0                     0.99508654741506886  0.098348858185356089  0.011403905346430673        2.7460806341840667e-12              2.2240545863539828e-11       
                      -5.6197491746190424e-21                          55                                          4.2990284275907342                  -3.7400380179490528e-10                -9.85734303285581e-22                3.7476796859495438e-21          4.5114302319211987e-26             0.0045570462716069101                    0.0068826663851579845                      0.0068826663851579845             -9.3674739748709062e-21     1.5565209112290157   0                     1.5565209112290157    0                       7                             7                           0                     0.99508901315851206  0.098336809443909864  0.011292901993314713        2.6333912134883959e-12              2.4873937077028223e-11       
                      -6.6477023342959008e-21                          61                                          5.8710147944761202                  -3.735146455804149e-10                -1.0279531596768583e-21                3.7473470433996801e-21          3.8129958080697158e-26             0.0040934690114734495                    0.0068826663851579845                      0.0068826663851579845             -1.0395087507653661e-20     1.7269889273207621   0                     1.7269889273207621    0                       8                             8                           0                     0.99508945021895967  0.098352901025024711  0.011114179974748549        2.7504396178295844e-12              2.7624376694857809e-11       
                      -7.7737724640267636e-21                          67                                          7.4539248090000347                  -3.7321898567347433e-10                -1.1260701297308634e-21                3.7489467744008718e-21          2.9746029493902051e-26             0.0037307412029318485                    0.0068826663851579845                      0.0068826663851579845             -1.152274898445713e-20     1.9133310104666701   0                     1.9133310104666701    0                       9                             9                           0                     0.99508734883689143  0.09840441153902052  0.010844948005235205        3.0161585173165514e-12              3.0640535212174363e-11       
                      -9.0024630707829035e-21                          73                                          9.2939555114256454                  -3.7317716899290704e-10                -1.2286906067561389e-21                3.7531251766977812e-21          2.1548486151993473e-26             0.0036167394998369586                    0.0068826663851579845                      0.0068826663851579845             -1.2755609795966837e-20     2.1159617027696336   0                     2.1159617027696336    0                       10                            10                          0                     0.9950818599516309   0.098501308598030024  0.010464254950692821        3.2925434452163628e-12              3.3933078657390721e-11       
                      -1.0322177119043769e-20                          79                                          11.59814615290999                   -3.7344939388900429e-10                -1.3197140482608655e-21                3.7605697594310479e-21          1.7133022774505467e-26             0.0033710821226668568                    0.0068826663851579845                      0.0068826663851579845             -1.408276401149759e-20     2.3325275439982871   0                     2.3325275439982871    0                       11                            11                          0                     0.99507208028943395  0.098652864209802058  0.0099555267251457517        3.5353962843844617e-12              3.7468474941775183e-11       
                      -1.1726874342280164e-20                          85                                          14.034285506912159                  -3.740866710277397e-10                -1.4046972232363953e-21                3.7720344822204721e-21          2.2232475914506763e-26             0.0036720013189803719                    0.0068826663851579845                      0.0068826663851579845             -1.5498931056976551e-20     2.5614955789399185   0                     2.5614955789399185    0                       12                            12                          0                     0.99505701916763256  0.098868219624937026  0.0093023368696677957        3.7585043077184734e-12              4.1226979249493658e-11       
                      -1.3207628968867605e-20                          91                                          16.548238841716323                  -3.7512716896735624e-10                -1.4807546265874412e-21                3.78830360776647e-21          4.5453876155655785e-26             0.0051868537189418262                    0.0068826663851579845                      0.0068826663851579845             -1.6995978030510231e-20     2.8007779840279774   0                     2.8007779840279774    0                       13                            13                          0                     0.99503564592807947  0.099155327878815702  0.0084918186431977433        3.9531541208744932e-12              4.5180133370368153e-11       
                      -1.4735934121535837e-20                          97                                          18.909380754355812                  -3.765738918971063e-10                -1.5283051526682336e-21                3.8098798457465883e-21          9.7787859528452868e-26             0.0068644456376117319                    0.0068826663851579845                      0.0068826663851579845             -1.8545911755141955e-20     3.0451229311732861   0                     3.0451229311732861    0                       14                            14                          0                     0.99500729959433099  0.099515776744050474  0.0075276165657047955        4.066601925479364e-12              4.9246735295847518e-11       
                      -1.6275410303136807e-20                          103                                         21.379923182823788                  -3.7838537000954704e-10                -1.5394761816009688e-21                3.8368452034615704e-21          1.8962766287597585e-25             0.0081188236927154604                    0.0081188236927154604                      0.0081188236927154604             -2.0112445134261256e-20     3.2881937626141831   0                     3.2881937626141831    0                       15                            15                          0                     0.99497187171676027  0.099943843988914469  0.0064295726534234791        4.078631653769196e-12              5.3325366949616713e-11       
                      -1.7794359921597183e-20                          109                                         24.275605303860623                  -3.804901440354823e-10                -1.5189496184603753e-21                3.8689264262314309e-21          3.2960340286702735e-25             0.010224069348720223                    0.010224069348720223                      0.010224069348720223             -2.1663615951231482e-20     3.5246851811849225   0                     3.5246851811849225    0                       16                            16                          0                     0.99492972049010386  0.10042901269239013  0.0052261036211465814        4.0034531730731632e-12              5.7328820122689873e-11       
                      -1.9287727485107556e-20                          115                                         27.018627560820715                  -3.8283659511627143e-10                -1.4933675635103736e-21                3.9060963687606925e-21          5.2514580492411291e-25             0.013406431421096161                    0.013406431421096161                      0.013406431421096161             -2.3194348999673173e-20     3.7536819914516037   0                     3.7536819914516037    0                       17                            17                          0                     0.99488088067927238  0.10096556702904178  0.0039313868511640128        3.9130454768909611e-12              6.124186559958083e-11       
                      -2.0772486891688589e-20                          121                                         29.618823899303685                  -3.854093163322933e-10                -1.484759406581033e-21                3.9489083678196028e-21          7.8754318488150028e-25             0.015805393659258957                    0.015805393659258957                      0.015805393659258957             -2.4722182802693073e-20     3.9776723491135457   0                     3.9776723491135457    0                       18                            18                          0                     0.99482462414936412  0.10155618660449672  0.002539315174862721        3.8655553875727423e-12              6.5107420987153574e-11       
                      -2.2258581039749818e-20                          127                                         31.606911776545509                  -3.8819365546640861e-10                -1.4860941480612304e-21                3.9979288180538322e-21          1.1297605664024847e-24             0.017521497760055307                    0.017521497760055307                      0.017521497760055307             -2.6257639618370055e-20     4.1979857503337668   0                     4.1979857503337668    0                       19                            19                          0                     0.99476020529743514  0.10220291933074398  0.0010461738412930132        3.8422216376111256e-12              6.8949642624764701e-11       
                      -2.3748921535293113e-20                          133                                         33.109156315122007                  -3.9116324604871783e-10                -1.490340495543293e-21                4.0536128614573927e-21          1.5628235838666546e-24             0.019190428398691388                    0.019190428398691388                      0.019190428398691388             -2.7804097220334372e-20     4.4148668110980296   0                     4.4148668110980296    0                       20                            20                          0                     0.99468702437222078  0.10290578028666679 -0.00054663540042042009        3.8247345138975865e-12              7.2774377138662287e-11       
                      -2.5238985753841054e-20                          139                                         35.865064048058336                  -3.9427763951388078e-10                -1.4900642185479416e-21                4.1161394500855444e-21          2.0976073114890521e-24             0.02088946628947699                    0.02088946628947699                      0.02088946628947699             -2.9357222811238087e-20     4.627508227984455    0                     4.627508227984455     0                       21                            21                          0                     0.99460484426588547  0.10366122750236549 -0.0022298098991294368        3.7943895719250778e-12              7.6568766710587371e-11       
                      -2.6726036481243561e-20                          145                                         38.757008799129565                  -3.9750054342133425e-10                -1.4870507274025071e-21                4.1856887436696956e-21          2.7416259416540713e-24             0.025861814305628197                    0.025861814305628197                      0.025861814305628197             -3.0914466850854913e-20     4.8354297220600113   0                     4.8354297220600113    0                       22                            22                          0                     0.99451342599255754  0.10446607153272615 -0.0039952188766816795        3.7563886901352221e-12              8.0325155400722591e-11       
                      -2.822469712424806e-20                          151                                         41.516063483564857                  -4.0083071324450269e-10                -1.4986606430044964e-21                4.2633227786031848e-21          3.5140190000554752e-24             0.030121125518112826                    0.030121125518112826                      0.030121125518112826             -3.2491533921851298e-20     5.0405621691103031   0                     5.0405621691103031    0                       23                            23                          0                     0.99441137090626219  0.10532702488568316 -0.00585631035819042        3.7546278232894342e-12              8.4079783224012019e-11       
                      -2.9739268844489174e-20                          157                                         43.54826830721673                   -4.0425225109657159e-10                -1.5145717202411172e-21                4.3497915038859549e-21          4.4317016525063159e-24             0.03325233476182405                    0.03325233476182405                      0.03325233476182405             -3.4093492050027638e-20     5.2433192422577948   0                     5.2433192422577948    0                       24                            24                          0                     0.99429768983002709  0.10624628745510864 -0.0078161228976209932        3.7626601158157952e-12              8.7842443339827818e-11       
                      -3.1267303826903956e-20                          163                                         44.891757997351625                  -4.0772715302691935e-10                -1.5280349824147836e-21                4.4455104573368945e-21          5.5056073398872164e-24             0.035504274294458918                    0.035504274294458918                      0.035504274294458918             -3.571831989158074e-20     5.4432087355894616   0                     5.4432087355894616    0                       25                            25                          0                     0.99417183251424446  0.10722217469835871 -0.0098693065223517291        3.7638530985129148e-12              9.1606296438340728e-11       
                      -3.2801268661024242e-20                          169                                         46.214082248871314                  -4.1120939266532642e-10                -1.5339648341202855e-21                4.5504899484585278e-21          6.7448193793078611e-24             0.037522721994012104                    0.037522721994012104                      0.037522721994012104             -3.7358503428862078e-20     5.6391461355937249   0                     5.6391461355937249    0                       26                            26                          0                     0.9940337809491141   0.10824920083381304 -0.012002895742843531        3.7463536729320002e-12              9.535265011127274e-11       
                      -3.4335706923578454e-20                          175                                         49.322347035134406                  -4.1465786912367112e-10                -1.5344382625542122e-21                4.6647300111993837e-21          8.1517466845231305e-24             0.039862218276332601                    0.039862218276332601                      0.039862218276332601             -3.9008588681462361e-20     5.8304120470980578   0                     5.8304120470980578    0                       27                            27                          0                     0.99388353020063447  0.10932250323721518 -0.014205696832835037        3.7160451823845638e-12              9.9068695293657302e-11       
                      -3.5988365980196696e-20                          181                                         52.986842434583096                  -4.1830133548371511e-10                -1.6526590566182376e-21                4.7984568618436396e-21          9.894148016870911e-24             0.047978178731725815                    0.047978178731725815                      0.047978178731725815             -4.0796716990057202e-20     6.0311516645596885   0                     6.0311516645596885    0                       28                            28                          0                     0.99370762200575802  0.11052831362714867 -0.016650628764154046        3.9683389296020729e-12              1.0303703422325938e-10       
                      -3.7781165914000187e-20                          187                                         57.616125005816798                  -4.2215503215883361e-10                -1.7927999338034935e-21                4.9565042850961163e-21          1.2151083436101049e-23             0.057734407131835731                    0.057734407131835731                      0.057734407131835731             -4.2749821282532403e-20     6.2428053656242017   0                     6.2428053656242017    0                       29                            29                          0                     0.99349968284934176  0.11189304337294573 -0.019383072725363666        4.2668552574461732e-12              1.0730388948070554e-10       
                      -3.9435421844278842e-20                          199                                         59.392168606122567                  -4.2554995311824253e-10                -1.6542559302786549e-21                5.1147224924832155e-21          1.4421222224592425e-23             0.061855340510030013                    0.061855340510030013                      0.061855340510030013             -4.4564565558986649e-20     6.4325099278719184   0                     6.4325099278719184    0                       30                            30                          0                     0.99329147670448437  0.1132029618244741  -0.021973933641610297        3.9035194919986303e-12              1.1120740897270417e-10       
                      -4.0982603673074659e-20                          205                                         59.221184578896249                  -4.2855443793064243e-10                -1.5471818287958139e-21                5.2738067184214883e-21          1.6686051370494754e-23             0.062768024999352912                    0.062768024999352912                      0.062768024999352912             -4.627309644286664e-20     6.6051406618808972   0                     6.6051406618808972    0                       31                            31                          0                     0.99308208822364585  0.11447089256844926 -0.024454295701250822        3.6233971155229772e-12              1.1483080608822715e-10       
                      -4.2507738431823475e-20                          211                                         60.543150978011347                  -4.3134136436275589e-10                -1.5251347587488189e-21                5.4414568452762727e-21          1.9107924230879339e-23             0.063726653374671621                    0.063726653374671621                      0.063726653374671621             -4.7968303201330626e-20     6.7708456266707469   0                     6.7708456266707469    0                       32                            32                          0                     0.99286137878920078  0.11576040086571972 -0.026950934715400856        3.5476339737405721e-12              1.1837844006196773e-10       
                      -4.4039361222819035e-20                          217                                         64.534388519290815                  -4.3393832225629964e-10                -1.5316227909955616e-21                5.6209632780103196e-21          2.1761548469141081e-23             0.070294229741976549                    0.070294229741976549                      0.070294229741976549             -4.9682086049298495e-20     6.9328645684781476   0                     6.9328645684781476    0                       33                            33                          0                     0.99262500774986151  0.11709428096233594 -0.029507620893758451        3.5405231661843414e-12              1.2191896322815206e-10       
                      -4.5591927194051453e-20                          223                                         67.207532641167944                  -4.3635630484320472e-10                -1.5525659712324151e-21                5.8146572279394456e-21          2.4691263162140838e-23             0.076506371486090019                    0.076506371486090019                      0.076506371486090019             -5.1431275685153038e-20     7.0926802490526439   0                     7.0926802490526439    0                       34                            34                          0                     0.99236989330410785  0.1184855783911978  -0.032147884655625646        3.5682339698638146e-12              1.2548719719801587e-10       
                      -4.7178469543502095e-20                          229                                         68.495800432853187                  -4.3856749811239266e-10                -1.5865423494506431e-21                6.0251574254026596e-21          2.7948088036328708e-23             0.080738296561801412                    0.080738296561801412                      0.080738296561801412             -5.3231575056941081e-20     7.2514753204245874   0                     7.2514753204245874    0                       35                            35                          0                     0.99209257073273871  0.11994758854170169 -0.034894710052206734        3.6270309740976129e-12              1.291142281721135e-10       
                      -4.8787903409107757e-20                          235                                         68.715367804372036                  -4.4052993424146943e-10                -1.6094338656056605e-21                6.2520742818268063e-21          3.1533307975637185e-23             0.084319850884750816                    0.084319850884750816                      0.084319850884750816             -5.5071510998910197e-20     7.4079773029177964   0                     7.4079773029177964    0                       36                            36                          0                     0.99179353516014845  0.12147192871088247 -0.037730031422866489        3.6619228118796636e-12              1.3277615098399316e-10       
                      -5.0406022595843826e-20                          241                                         68.309920403326714                  -4.4218638606221951e-10                -1.6181191867360707e-21                6.4942294393330839e-21          3.5415215045092235e-23             0.088275991638760015                    0.088275991638760015                      0.088275991638760015             -5.6935667250221996e-20     7.5607496070987521   0                     7.5607496070987521    0                       37                            37                          0                     0.99147432073601771  0.12304618042426253 -0.040628927477453287        3.6665887720279947e-12              1.3644273975602114e-10       