# ODT 1.0
# Table Start
# Title: mmArchive Data Table, Wed Jun 16 18:46:46 EDT 2010
# Columns: {Oxs_RungeKuttaEvolve:evolve:Total energy} {Oxs_RungeKuttaEvolve:evolve:Energy calc count} {Oxs_RungeKuttaEvolve:evolve:Max dm/dt} Oxs_RungeKuttaEvolve:evolve:dE/dt {Oxs_RungeKuttaEvolve:evolve:Delta E} Oxs_UniaxialAnisotropy::Energy Oxs_UniformExchange::Energy {Oxs_UniformExchange::Max Spin Ang} {Oxs_UniformExchange::Stage Max Spin Ang} {Oxs_UniformExchange::Run Max Spin Ang} Oxs_ScriptUZeeman::Energy Oxs_ScriptUZeeman::B Oxs_ScriptUZeeman::Bx Oxs_ScriptUZeeman::By Oxs_ScriptUZeeman::Bz Oxs_TimeDriver::Iteration {Oxs_TimeDriver::Stage iteration} Oxs_TimeDriver::Stage Oxs_TimeDriver::mx   Oxs_TimeDriver::my   Oxs_TimeDriver::mz   {Oxs_TimeDriver::Last time step} {Oxs_TimeDriver::Simulation time}
# Units:                       J                                            {}                                        deg/ns                                 J/s                                  J                                 J                             J                              deg                                    deg                                      deg                               J                      mT                   mT                    mT                    mT                      {}                            {}                          {}                   {}                   {}                   {}                          s                                 s                
                       3.824621324621325e-21                          1                                           12.534976760299621                  -3.8843353502662963e-10                 0                                  3.824621324621325e-21          0                               0                                      0                                        0                                0                       0                    0                     0                     0                       0                             0                           0                     0.99498793460071167  0.099498793460071164  0.0099498793460071171        0                                0                         
                       3.5305067150787915e-21                          7                                           12.100268786122417                  -3.8772088157404046e-10                -2.9411460954253367e-22                3.8202706472313893e-21          2.4820379342016602e-28             0.00018137639028176802                    0.00018137639028176802                      0.00018137639028176802             -2.8976418035639142e-22     0.04761878380303871  0                     0.04761878380303871   0                       1                             1                           0                     0.99499365038942855  0.099429436269026769  0.010070831086915309        7.5787934685990771e-13              7.5787934685990771e-13       
                       2.35925273511466e-21                          13                                          10.312711549985785                  -3.8504322449570819e-10                -1.1712539799641315e-21                3.804199181492484e-21          5.2384415717839053e-27             0.00089749101108625522                    0.00089749101108625522                      0.00089749101108625522             -1.444951684819396e-21     0.23807232382591387  0                     0.23807232382591387   0                       2                             2                           0                     0.99501476426601076  0.099172895311596052  0.01050377389075237        3.0315173874396309e-12              3.789396734299539e-12       
                      -9.4728710629893675e-22                          19                                          6.1488390950640515                  -3.7891694516379619e-10                -3.3065398414135969e-21                3.7695159371887508e-21          3.9523814874212122e-26             0.0054450139289887248                    0.0054450139289887248                      0.0054450139289887248             -4.7168425673025615e-21     0.78145851755415496  0                     0.78145851755415496   0                       3                             3                           0                     0.99506032768046049  0.098626592759167145  0.011294963993251996        8.6605953971149413e-12              1.2449992131414481e-11       
                      -2.047428374497603e-21                          31                                          4.6774680303255369                  -3.7736143926198422e-10                -1.1001412681986661e-21                3.7614684302958393e-21          4.6052846119573643e-26             0.0055640329813522599                    0.0055640329813522599                      0.0055640329813522599             -5.8089428576395621e-21     0.96356934901691782  0                     0.96356934901691782   0                       4                             4                           0                     0.9950708994151618   0.098506004836843658  0.01141376484472372        2.9095211584682241e-12              1.5359513289882705e-11       
                      -3.0519267445355593e-21                          37                                          2.8474958531967429                  -3.761554366360444e-10                -1.0044983700379565e-21                3.7556620262312804e-21          4.863311930802747e-26             0.0052278794341152736                    0.0055640329813522599                      0.0055640329813522599             -6.8076374038861477e-21     1.1301744799449704   0                     1.1301744799449704    0                       5                             5                           0                     0.99507852704667765  0.098423656936293166  0.011458276506740035        2.6662857601932517e-12              1.8025799050075956e-11       
                      -3.9970021207055563e-21                          43                                          2.5432330700020134                  -3.7520795999986238e-10                -9.4507537616999677e-22                3.7515621836071443e-21          4.8214896849098917e-26             0.0045619886938213922                    0.0055640329813522599                      0.0055640329813522599             -7.7486125192095499e-21     1.2870821000562216   0                     1.2870821000562216    0                       6                             6                           0                     0.99508391283465025  0.098370815403172857  0.011444138603518301        2.5157317704231382e-12              2.0541530820499096e-11       
                      -4.8640906819663846e-21                          49                                          2.9080412836879277                  -3.7449812383215883e-10                -8.6708856126082826e-22                3.7489843210558988e-21          4.560851216970654e-26             0.0043645934331991709                    0.0055640329813522599                      0.0055640329813522599             -8.6131206115344531e-21     1.4310762154446404   0                     1.4310762154446404    0                       7                             7                           0                     0.99508729927917705  0.098343654499649574  0.011383292563186403        2.3132221273459025e-12              2.2854752947844997e-11       
                      -5.7267486139149448e-21                          55                                          4.2830668750979175                  -3.7394265901664791e-10                -8.6265793194856018e-22                3.7475669681590803e-21          4.1377857136527823e-26             0.0039824112179351456                    0.0055640329813522599                      0.0055640329813522599             -9.4743569599311613e-21     1.57427592762702     0                     1.57427592762702      0                       8                             8                           0                     0.9950891612379873   0.098337115832415237  0.011277294060599949        2.3052912629202822e-12              2.5160044210765281e-11       
                      -6.6376754804671137e-21                          61                                          5.5619377617329757                  -3.7351808527862247e-10                -9.109268665521691e-22                3.7473420641221424e-21          3.5632621848272095e-26             0.0035341512503708193                    0.0055640329813522599                      0.0055640329813522599             -1.0385053177211105e-20     1.7253271332869293   0                     1.7253271332869293    0                       9                             9                           0                     0.9950894567591364   0.098352601149360161  0.011116233584524477        2.4374811514087606e-12              2.7597525362174039e-11       
                      -7.6596720573463605e-21                          67                                          7.0649177248910782                  -3.7323737583084248e-10                -1.0219965768792465e-21                3.7486891092763687e-21          2.8474596210694057e-26             0.0035713143616489941                    0.0055640329813522599                      0.0055640329813522599             -1.1408389641218939e-20     1.894473531195886    0                     1.894473531195886     0                       10                            10                          0                     0.99508768730863628  0.098397571871633185  0.010875710282585917        2.737291647398059e-12              3.0334817009572097e-11       
                      -8.7887749781620128e-21                          73                                          8.9339259048938633                  -3.7316345667918405e-10                -1.1291029208156521e-21                3.7522114455187597e-21          2.1208405024039865e-26             0.0032136149023410257                    0.0055640329813522599                      0.0055640329813522599             -1.2541007632085796e-20     2.0807830809073278   0                     2.0807830809073278    0                       11                            11                          0                     0.99508306026879412  0.098481397336008761  0.010536939180807796        3.0256272043576128e-12              3.3360444213929715e-11       
                      -1.0020871253723292e-20                          79                                          11.05183971377379                   -3.733588026249756e-10                -1.2320962755612788e-21                3.7585925245384439e-21          1.6573760520044854e-26             0.0032658393638807506                    0.0055640329813522599                      0.0055640329813522599             -1.3779480352022254e-20     2.283195854535506    0                     2.283195854535506     0                       12                            12                          0                     0.99507467772720204  0.098613926293496842  0.010080703530419332        3.3011082405821449e-12              3.6661552454511859e-11       
                      -1.1338634154388768e-20                          85                                          13.384413974941015                  -3.738756354918389e-10                -1.3177629006654767e-21                3.768489204670435e-21          1.955750426475859e-26             0.0036750156519218305                    0.0055640329813522599                      0.0055640329813522599             -1.5107142916563469e-20     2.4983897842386753   0                     2.4983897842386753    0                       13                            13                          0                     0.99506167661339262  0.098803133932099621  0.0094942560164918387        3.52729189714598e-12              4.0188844351657837e-11       
                      -1.2697372283099341e-20                          91                                          15.800535775750523                  -3.7472772300209206e-10                -1.3587381287105722e-21                3.7821965809246629e-21          3.7152084069871293e-26             0.0051004139107126943                    0.0055640329813522599                      0.0055640329813522599             -1.6479606016108073e-20     2.7185874874376164   0                     2.7185874874376164    0                       14                            14                          0                     0.9950436689911758   0.099049454671088666  0.008785051106387283        3.6303312468180828e-12              4.3819175598475919e-11       
                      -1.4042909461071973e-20                          97                                          18.389954759423023                  -3.7587364637732378e-10                -1.3455371779726342e-21                3.7994743195453292e-21          7.55619643946638e-26             0.0068603773093009902                    0.0068603773093009902                      0.0068603773093009902             -1.7842459342581696e-20     2.9346770280798258   0                     2.9346770280798258    0                       15                            15                          0                     0.99502097025374614  0.099344306211752637  0.0079806501543408948        3.5854823176637391e-12              4.740465791613966e-11       
                      -1.5341888135583314e-20                          103                                         20.777976837661942                  -3.7724797132283977e-10                -1.2989786745113388e-21                3.8198488775388303e-21          1.3801096903709429e-25             0.0091334624199893057                    0.0091334624199893057                      0.0091334624199893057             -1.916187502409118e-20     3.1411856496184343   0                     3.1411856496184343    0                       16                            16                          0                     0.99499420217011436  0.09967654510054777  0.0071103387135601189        3.4498158976452462e-12              5.0854473813784902e-11       
                      -1.6598337862262274e-20                          109                                         22.822022723758831                  -3.7880955046059528e-10                -1.2564497266789618e-21                3.8431993544900548e-21          2.2657914475397683e-25             0.010617363040067817                    0.010617363040067817                      0.010617363040067817             -2.0441763795897085e-20     3.3387614117833571   0                     3.3387614117833571    0                       17                            17                          0                     0.99496352322232284  0.10004181404521555  0.0061835266041578782        3.3238905211426252e-12              5.417836433492753e-11       
                      -1.7924337158475597e-20                          115                                         25.445145123585867                  -3.8068815832556959e-10                -1.3259992962133211e-21                3.8719356140167228e-21          3.6607550380356592e-25             0.013234311133180248                    0.013234311133180248                      0.013234311133180248             -2.1796638847996123e-20     3.5447616567605671   0                     3.5447616567605671    0                       18                            18                          0                     0.9949257666385587   0.10047339258005208  0.0051177202701555777        3.4920334630851212e-12              5.767039779801265e-11       
                      -1.9259242595527828e-20                          121                                         28.018553904685792                  -3.827964468169247e-10                -1.3349054370522331e-21                3.90533444015681e-21          5.6144139277427754e-25             0.016446372812613255                    0.016446372812613255                      0.016446372812613255             -2.3165138477077413e-20     3.7493543096749806   0                     3.7493543096749806    0                       19                            19                          0                     0.99488188184900173  0.10095480536902911  0.0039570518115882641        3.4971636847128284e-12              6.1167561482725482e-11       
                      -2.0562915485347981e-20                          127                                         30.096266168415266                  -3.8504412690711786e-10                -1.3036728898201527e-21                3.9425013899302979e-21          8.087183285871062e-25             0.018383658528677474                    0.018383658528677474                      0.018383658528677474             -2.4506225593606865e-20     3.9462965373149319   0                     3.9462965373149319    0                       20                            20                          0                     0.99483304337068024  0.10146944584245723  0.0027418962190403182        3.3959899553746819e-12              6.4563551438100155e-11       
                      -2.1828812379795774e-20                          133                                         32.057572098511542                  -3.8738278996458073e-10                -1.2658968944477926e-21                3.9831020491989329e-21          1.0997821636459105e-24             0.020639595549651005                    0.020639595549651005                      0.020639595549651005             -2.5813014211158352e-20     4.1346930503390853   0                     4.1346930503390853    0                       21                            21                          0                     0.99477968994505273  0.10201029987595175  0.001487879826535573        3.2779992779615634e-12              6.784155071606173e-11       
                      -2.3069524303846742e-20                          139                                         33.45829777969179                   -3.8980453268795003e-10                -1.2407119240509673e-21                4.027400846242523e-21          1.4403664235677497e-24             0.022098102447574871                    0.022098102447574871                      0.022098102447574871             -2.7098365516512832e-20     4.3165242736179037   0                     4.3165242736179037    0                       22                            22                          0                     0.99472147334649019  0.10257876990894281  0.00019091945829680768        3.1930968463375035e-12              7.1034647562399232e-11       
                      -2.4303830879365839e-20                          145                                         35.27473040614133                   -3.923244991960132e-10                -1.2343065755190987e-21                4.0760843166145795e-21          1.8405227117943598e-24             0.023016212826001418                    0.023016212826001418                      0.023016212826001418             -2.8381755718692215e-20     4.4945657150120866   0                     4.4945657150120866    0                       23                            23                          0                     0.99465749042776086  0.10318108752110132 -0.0011632272622218432        3.1565287909160513e-12              7.4191176353315282e-11       
                      -2.5541217728172477e-20                          151                                         38.164760130270608                  -3.9494078348682503e-10                -1.2373868488066353e-21                4.1296908684291983e-21          2.3136805028706138e-24             0.025702628252128153                    0.025702628252128153                      0.025702628252128153             -2.9673222277104545e-20     4.6701298688714656   0                     4.6701298688714656    0                       24                            24                          0                     0.99458703242127322  0.10382079016412199 -0.0025819503201100747        3.1437599954451101e-12              7.7334936348760387e-11       
                      -2.6790439421867475e-20                          157                                         40.504404346289654                  -3.976602873877918e-10                -1.2492216936950006e-21                4.1888722213782502e-21          2.8719075282275857e-24             0.030925548064973569                    0.030925548064973569                      0.030925548064973569             -3.0982183550773952e-20     4.8443503734683135   0                     4.8443503734683135    0                       25                            25                          0                     0.99450924130377938  0.10450210869007936 -0.0040736613725690764        3.1524642743545828e-12              8.0487400623114971e-11       
                      -2.8061006948967522e-20                          163                                         43.193776461173705                  -4.0048288384036937e-10                -1.2705675271000425e-21                4.2544715357189259e-21          3.5332461136704745e-24             0.034406306105055844                    0.034406306105055844                      0.034406306105055844             -3.2319011730800117e-20     5.0183889421333046   0                     5.0183889421333046    0                       26                            26                          0                     0.9944230069753589   0.10523066925724751 -0.0056493111820797356        3.1840855394943557e-12              8.3671486162609335e-11       
                      -2.9348211458926604e-20                          169                                         45.572929126428171                  -4.0338810458332656e-10                -1.2872045099590872e-21                4.3266843615788116e-21          4.3059890962467558e-24             0.036386284937219841                    0.036386284937219841                      0.036386284937219841             -3.3679201809601661e-20     5.1914251603518666   0                     5.1914251603518666    0                       27                            27                          0                     0.99432807021324832  0.1060043702954106  -0.0073029185610216357        3.202821417051024e-12              8.6874307579660351e-11       
                      -3.0648545380285998e-20                          175                                         47.246836588207856                  -4.0634360449912823e-10                -1.3003339213593933e-21                4.4057128912827517e-21          5.1949223938846596e-24             0.041024372712982191                    0.041024372712982191                      0.041024372712982191             -3.5059453193962637e-20     5.3628508390506617   0                     5.3628508390506617    0                       28                            28                          0                     0.99422416275603054  0.10682133429534299 -0.0090291737121466556        3.2120942981064886e-12              9.0086401877766836e-11       
                      -3.1956183079083077e-20                          181                                         48.885375129407556                  -4.093229752790238e-10                -1.3076376987970759e-21                4.4915457655596213e-21          6.2061967315182951e-24             0.043879638821485094                    0.043879638821485094                      0.043879638821485094             -3.6453935041374213e-20     5.5318082124164771   0                     5.5318082124164771    0                       29                            29                          0                     0.99411129683226529  0.10767772679081854 -0.010818969180623247        3.2066688430378888e-12              9.329307072080473e-11       
                      -3.3264524367029374e-20                          187                                         50.233946744501026                  -4.1228758302268655e-10                -1.3083412879462988e-21                4.5840065884056884e-21          7.3321716251062349e-24             0.045192306831035853                    0.045192306831035853                      0.045192306831035853             -3.785586312706017e-20     5.6974108689420389   0                     5.6974108689420389    0                       30                            30                          0                     0.99398970149968902  0.10856858830196746 -0.012661143728549895        3.1851874160473647e-12              9.6478258136852097e-11       
                      -3.4573107173582756e-20                          193                                         51.002160624293317                  -4.1521957636165521e-10                -1.308582806553379e-21                4.6832650029497061e-21          8.5828646767088213e-24             0.047180642561464418                    0.047180642561464418                      0.047180642561464418             -3.9264955041209166e-20     5.8596067402137288   0                     5.8596067402137288    0                       31                            31                          0                     0.99385915053354768  0.10949271190784629 -0.014552670770248285        3.1630925714308771e-12              9.9641350708282972e-11       
                      -3.5883156749621564e-20                          199                                         51.843557577833053                  -4.1810606238625372e-10                -1.3100495760388097e-21                4.7896222658894078e-21          9.9589860899846252e-24             0.049322628182689982                    0.049322628182689982                      0.049322628182689982             -4.0682738001600956e-20     6.0185562661156942   0                     6.0185562661156942    0                       32                            32                          0                     0.99371924422175584  0.11045017966912093 -0.016493103552367203        3.1445188272548989e-12              1.0278586953553787e-10       
                      -3.7194650987308386e-20                          205                                         55.111669353256303                  -4.2092398697002244e-10                -1.3114942376868237e-21                4.9032924359449087e-21          1.1471242890501661e-23             0.051209236251255529                    0.051209236251255529                      0.051209236251255529             -4.2109414666143799e-20     6.1742701693568138   0                     6.1742701693568138    0                       33                            33                          0                     0.99356969710294407  0.11144026942018595 -0.018480421986555102        3.1265863257321932e-12              1.0591245586127006e-10       
                      -3.8510318295798325e-20                          211                                         57.577705572965598                  -4.2367219170788212e-10                -1.3156673084899366e-21                5.0247533952511994e-21          1.3126924548755666e-23             0.056436497375188792                    0.056436497375188792                      0.056436497375188792             -4.3548198615598276e-20     6.3270791640539112   0                     6.3270791640539112    0                       34                            34                          0                     0.99340987610628018  0.11246451235295944 -0.020517053496396639        3.1158537766059777e-12              1.0902830963787604e-10       
                      -3.984459904145867e-20                          217                                         60.47851473668392                   -4.2635205230714767e-10                -1.3342807456603493e-21                5.1557325911737171e-21          1.496564630542788e-23             0.062899937818916743                    0.062899937818916743                      0.062899937818916743             -4.5015297278937814e-20     6.4786083815559312   0                     6.4786083815559312    0                       35                            35                          0                     0.9932375028460888   0.11353426999528052 -0.02262457833705939        3.1397785036035426e-12              1.1216808814147958e-10       
                      -4.1195751787254731e-20                          223                                         62.791705256473726                  -4.2895324091486937e-10                -1.3511527457960591e-21                5.2965818603658087e-21          1.6998470219470876e-23             0.066878404210826276                    0.066878404210826276                      0.066878404210826276             -4.6509332117840012e-20     6.6285624444892965   0                     6.6285624444892965    0                       36                            36                          0                     0.99305210781290509  0.11464875129690358 -0.024800169674499595        3.159888924995629e-12              1.1532797706647521e-10       
                      -4.2561462179086068e-20                          229                                         64.054748583807267                  -4.3143761744460717e-10                -1.3657103918313387e-21                5.4475659002119799e-21          1.9228163585084605e-23             0.069500144159104299                    0.069500144159104299                      0.069500144159104299             -4.8028256242883133e-20     6.7766060148316605   0                     6.7766060148316605    0                       37                            37                          0                     0.99285333538259313  0.11580655966831721 -0.027039834163449343        3.1750883807786424e-12              1.1850306544725385e-10       