# ODT 1.0
# Table Start
# Title: mmArchive Data Table, Wed Jun 16 18:46:49 EDT 2010
# Columns: {Oxs_RungeKuttaEvolve:evolve:Total energy} {Oxs_RungeKuttaEvolve:evolve:Energy calc count} {Oxs_RungeKuttaEvolve:evolve:Max dm/dt} Oxs_RungeKuttaEvolve:evolve:dE/dt {Oxs_RungeKuttaEvolve:evolve:Delta E} Oxs_UniaxialAnisotropy::Energy Oxs_UniformExchange::Energy {Oxs_UniformExchange::Max Spin Ang} {Oxs_UniformExchange::Stage Max Spin Ang} {Oxs_UniformExchange::Run Max Spin Ang} Oxs_ScriptUZeeman::Energy Oxs_ScriptUZeeman::B Oxs_ScriptUZeeman::Bx Oxs_ScriptUZeeman::By Oxs_ScriptUZeeman::Bz Oxs_TimeDriver::Iteration {Oxs_TimeDriver::Stage iteration} Oxs_TimeDriver::Stage Oxs_TimeDriver::mx   Oxs_TimeDriver::my   Oxs_TimeDriver::mz   {Oxs_TimeDriver::Last time step} {Oxs_TimeDriver::Simulation time}
# Units:                       J                                            {}                                        deg/ns                                 J/s                                  J                                 J                             J                              deg                                    deg                                      deg                               J                      mT                   mT                    mT                    mT                      {}                            {}                          {}                   {}                   {}                   {}                          s                                 s                
                       3.824621324621325e-21                          1                                           12.534976760299621                  -3.8843353502662963e-10                 0                                  3.824621324621325e-21          0                               0                                      0                                        0                                0                       0                    0                     0                     0                       0                             0                           0                     0.99498793460071167  0.099498793460071164  0.0099498793460071171        0                                0                         
                       3.5305067150787207e-21                          7                                           12.100268847975618                  -3.8772088157401725e-10                -2.9411460954260462e-22                3.8202706472313186e-21          2.4820379102299209e-28             0.00018137455057645527                    0.00018137455057645527                      0.00018137455057645527             -2.8976418035638879e-22     0.04761878380303871  0                     0.04761878380303871   0                       1                             1                           0                     0.99499365038942855  0.099429436269025853  0.010070831086915014        7.5787934685990771e-13              7.5787934685990771e-13       
                       2.359252734686724e-21                          13                                          10.313411957692534                  -3.8504322427969432e-10                -1.1712539803919968e-21                3.8041991812686504e-21          5.2381989248632352e-27             0.00089434594557719126                    0.00089434594557719126                      0.00089434594557719126             -1.4449516847808513e-21     0.23807232382591387  0                     0.23807232382591387   0                       2                             2                           0                     0.99501476426630486  0.09917289530895057  0.010503773888076511        3.0315173874396309e-12              3.789396734299539e-12       
                      -1.8140372446775689e-21                          19                                          7.0070890714153515                  -3.7767345371565552e-10                -4.1732899793642929e-21                3.7630289414420149e-21          7.5345074328178029e-26             0.010158521026176629                    0.010158521026176629                      0.010158521026176629             -5.5771415311939116e-21     0.92490341899344009  0                     0.92490341899344009   0                       3                             3                           0                     0.99506884943042972  0.098528950926330405  0.011394674453635121        1.0951966942907995e-11              1.4741363677207534e-11       
                      -2.9633221181601212e-21                          31                                          4.310278697473005                   -3.7625571759524633e-10                -1.1492848734825522e-21                3.7561141945059466e-21          7.3630236196472173e-26             0.0083044405313193563                    0.010158521026176629                      0.010158521026176629             -6.7195099429022649e-21     1.1154739010888279   0                     1.1154739010888279    0                       4                             4                           0                     0.99507793305216052  0.098429836854575473  0.011456813798621922        3.0489794270206434e-12              1.7790343104228177e-11       
                      -4.0768865323126422e-21                          37                                          4.2334355567714708                  -3.7513814574323302e-10                -1.1135644141525212e-21                3.7512771069143643e-21          6.8928135386372135e-26             0.0068327033701721801                    0.010158521026176629                      0.010158521026176629             -7.8282325673623929e-21     1.3003517709510928   0                     1.3003517709510928    0                       5                             5                           0                     0.99508428732810195  0.098367456952644511  0.011440447516599908        2.9641709795247095e-12              2.0754514083752888e-11       
                      -5.1073721714742808e-21                          43                                          4.060931468863469                   -3.7432810369548305e-10                -1.0304856391616387e-21                3.7484676705389208e-21          6.173224802409276e-26             0.0063661146698611457                    0.010158521026176629                      0.010158521026176629             -8.8559015742612254e-21     1.4714731318797623   0                     1.4714731318797623    0                       6                             6                           0                     0.99508797798984372  0.098339732445118039  0.011357988191428813        2.7500558675336014e-12              2.3504569951286488e-11       
                      -6.155733249975991e-21                          49                                          5.6826443493311842                  -3.7372377782773279e-10                -1.0483610785017099e-21                3.7472962488458255e-21          5.2475142029924031e-26             0.0056603324343942546                    0.010158521026176629                      0.010158521026176629             -9.9030819739638464e-21     1.6454397602612851   0                     1.6454397602612851    0                       7                             7                           0                     0.99508951690169478  0.09834153084300977  0.011207719785276208        2.8030526627505515e-12              2.630762261403704e-11       
                      -7.2254464901862922e-21                          55                                          7.2286236416388299                  -3.7333292312613114e-10                -1.0697132402103014e-21                3.7479069358252986e-21          4.203945941900811e-26             0.0048100715623928458                    0.010158521026176629                      0.010158521026176629             -1.097339546547101e-20     1.822658719893808    0                     1.822658719893808     0                       8                             8                           0                     0.99508871477038618  0.098374888023723461  0.010985607764779894        2.8639561144129331e-12              2.917157872844997e-11       
                      -8.4061203999390373e-21                          61                                          8.7831207973297811                  -3.7316213134005855e-10                -1.1806739097527453e-21                3.7507735419381446e-21          3.1328599989712002e-26             0.0048236827260734229                    0.010158521026176629                      0.010158521026176629             -1.2156925270477172e-20     2.0177212998770622   0                     2.0177212998770622    0                       9                             9                           0                     0.99508494915172685  0.09844896309076076  0.01066029398053963        3.1634421945598203e-12              3.2335020923009793e-11       
                      -9.6882751483284394e-21                          67                                          10.750480228331133                  -3.7327900850814545e-10                -1.2821547483894023e-21                3.7566024170621776e-21          2.2802271432234262e-26             0.0044169277842154792                    0.010158521026176629                      0.010158521026176629             -1.3444900367662049e-20     2.2286615333548205   0                     2.2286615333548205    0                       10                            10                          0                     0.99507729206127116  0.098573924849676031  0.010212692670960331        3.4356234118054318e-12              3.5770644334815227e-11       
                      -1.1060971330742155e-20                          73                                          13.278032780444976                  -3.7374128436650283e-10                -1.3726961824137139e-21                3.7661319143683994e-21          2.1338192206485934e-26             0.0041798038490550539                    0.010158521026176629                      0.010158521026176629             -1.482712458330276e-20     2.4531719455532186   0                     2.4531719455532186    0                       11                            11                          0                     0.99506477337570964  0.098759191317228115  0.0096261983429185016        3.6754104132443715e-12              3.9446054748059598e-11       
                      -1.2528297878645788e-20                          79                                          15.638348542832873                  -3.7460455620431382e-10                -1.4673265479036336e-21                3.7802904342944921e-21          3.4613937488432189e-26             0.0053950089024077004                    0.010158521026176629                      0.010158521026176629             -1.6308622926877768e-20     2.6912905101241771   0                     2.6912905101241771    0                       12                            12                          0                     0.99504617315886734  0.09901597979727314  0.0088789989712528342        3.9218532908197813e-12              4.3367908038879378e-11       
                      -1.4086665210755912e-20                          85                                          17.744086192830892                  -3.7591514552709067e-10                -1.558367332110124e-21                3.8001003988658604e-21          7.4360233422467216e-26             0.0062522519747115124                    0.010158521026176629                      0.010158521026176629             -1.7886839969855194e-20     2.9416676903851817   0                     2.9416676903851817    0                       13                            13                          0                     0.99502014772511793  0.099354739460781355  0.0079528185079128268        4.1531473214926653e-12              4.7521055360372042e-11       
                      -1.5694126537326634e-20                          91                                          21.273998423588647                  -3.7766203045130552e-10                -1.6074613265707219e-21                3.8260254807715548e-21          1.5569932153563562e-25             0.008922187974419498                    0.010158521026176629                      0.010158521026176629             -1.9520307717419723e-20     3.1967978095456631   0                     3.1967978095456631    0                       14                            14                          0                     0.99498608717261416  0.099774616798100901  0.006858833188880315        4.2666127097348548e-12              5.1787668070106899e-11       
                      -1.728397036031935e-20                          97                                          24.410064806580365                  -3.7975152889246301e-10                -1.589843822992717e-21                3.8575193934547247e-21          2.8819325263910903e-25             0.012074654856327721                    0.012074654856327721                      0.012074654856327721             -2.1141777947026714e-20     3.4456109767870218   0                     3.4456109767870218    0                       15                            15                          0                     0.99494470832559267  0.10025910944405066  0.0056434808780460805        4.198459282529972e-12              5.5986127352636872e-11       
                      -1.8833672555512585e-20                          103                                         25.897800239282958                  -3.8209865053882322e-10                -1.5497021951932341e-21                3.8941854932993786e-21          4.7660706121373847e-25             0.012746954982187307                    0.012746954982187307                      0.012746954982187307             -2.2728334655873176e-20     3.6844420436529721   0                     3.6844420436529721    0                       16                            16                          0                     0.99489653138405942  0.10079627060292247  0.0043364371152479955        4.0685929051030337e-12              6.0054720257739901e-11       
                      -2.0346502153765688e-20                          109                                         28.901975339349555                  -3.8465195468251953e-10                -1.5128295982531046e-21                3.9360098605817863e-21          7.2716151947912967e-25             0.015402030112338115                    0.015402030112338115                      0.015402030112338115             -2.4283239175866954e-20     3.9138000413441807   0                     3.9138000413441807    0                       17                            17                          0                     0.99484157362253145  0.10138099792082397  0.0029490963166960661        3.9463757852384563e-12              6.4001096042978364e-11       
                      -2.1944026852741112e-20                          115                                         33.036878730438566                  -3.875978183651288e-10                -1.5975246989754243e-21                3.9870236772047739e-21          1.1000449943764633e-24             0.02122356946841707                    0.02122356946841707                      0.02122356946841707             -2.5932150574940263e-20     4.1516928494528562   0                     4.1516928494528562    0                       18                            18                          0                     0.99477453636282409  0.10206148815338341  0.0013702566386210211        4.1377306615925226e-12              6.8138826704570879e-11       
                      -2.3566743475225194e-20                          121                                         35.322239618153318                  -3.9081319771996133e-10                -1.6227166224840822e-21                4.0464496870049035e-21          1.6208638634665279e-24             0.024184631699282925                    0.024184631699282925                      0.024184631699282925             -2.7614814026093567e-20     4.3885952070227034   0                     4.3885952070227034    0                       19                            19                          0                     0.99469643864893809  0.10281705879018047 -0.00034709596923596586        4.1698863313713239e-12              7.2308713035942207e-11       
                      -2.50741374563237e-20                          133                                         36.26149347610091                   -3.9395226080750721e-10                -1.5073939810985056e-21                4.1088811244267158e-21          2.1668859642483248e-24             0.024392364102285923                    0.024392364102285923                      0.024392364102285923             -2.9185185466714667e-20     4.6042124025120152   0                     4.6042124025120152    0                       20                            20                          0                     0.99461438440058347  0.103575177202731   -0.0020394404913070636        3.8421000358833845e-12              7.6150813071825593e-11       
                      -2.6479467081807778e-20                          139                                         39.990639066600359                  -3.9698150768769545e-10                -1.4053296254840764e-21                4.1736551933188232e-21          2.7371356117456059e-24             0.030485782920578124                    0.030485782920578124                      0.030485782920578124             -3.0655859410738343e-20     4.801269288880289    0                     4.801269288880289     0                       21                            21                          0                     0.99452924395732489  0.10432923157001246 -0.003696908518216256        3.5538876694806549e-12              7.9704700741306242e-11       
                      -2.7885211961772658e-20                          145                                         42.293555286090843                  -4.0008741150154804e-10                -1.4057448799648822e-21                4.2450620224235869e-21          3.4145333274360606e-24             0.033738924980858023                    0.033738924980858023                      0.033738924980858023             -3.2133688517523682e-20     4.9944973481848285   0                     4.9944973481848285    0                       22                            22                          0                     0.99443537681461669  0.10512775025999416 -0.0054278659126398053        3.5275254288388428e-12              8.3232226170145092e-11       
                      -2.934955867976924e-20                          151                                         43.501290779295282                  -4.0338348195082555e-10                -1.4643467179965787e-21                4.3267598950743236e-21          4.2558380779402099e-24             0.035196627310938894                    0.035196627310938894                      0.035196627310938894             -3.3680574412921502e-20     5.1915977277443792   0                     5.1915977277443792    0                       23                            23                          0                     0.9943279709070395   0.10600516682496873 -0.0073046105168165553        3.6452948782785656e-12              8.6877521048423656e-11       
                      -3.086584638401299e-20                          157                                         43.817298153049244                  -4.0682840124251279e-10                -1.5162877042437537e-21                4.4195240991413609e-21          5.2778453548396215e-24             0.035502010255598578                    0.035502010255598578                      0.035502010255598578             -3.5290648328509195e-20     5.3911563963825726   0                     5.3911563963825726    0                       24                            24                          0                     0.99420600255969116  0.10696120426373093 -0.0093228273390558239        3.7431924994378784e-12              9.0620713547861531e-11       
                      -3.2415709758518827e-20                          163                                         47.783840390992772                  -4.10351200621715e-10                -1.5498633745058357e-21                4.5232533073660615e-21          6.4894741728013166e-24             0.040351607721592561                    0.040351607721592561                      0.040351607721592561             -3.6945452540057693e-20     5.5903523595483726   0                     5.5903523595483726    0                       25                            25                          0                     0.99406959984513599  0.1079867289586004  -0.011460120687154561        3.7934645296267044e-12              9.4414178077488233e-11       
                      -3.3980116440182188e-20                          169                                         50.89615871453919                   -4.1388015757202329e-10                -1.5644066816633608e-21                4.6374238517495476e-21          7.8858625320077925e-24             0.046256940815120259                    0.046256940815120259                      0.046256940815120259             -3.8625426154463743e-20     5.7865177875846872   0                     5.7865177875846872    0                       26                            26                          0                     0.99391944579827596  0.10906981322044132 -0.013689429739958741        3.7962988864901971e-12              9.821047696397843e-11       
                      -3.5576238102788455e-20                          175                                         52.435763921579472                  -4.174175124060214e-10                -1.5961216626062653e-21                4.7640575436255626e-21          9.5072311630116609e-24             0.049898549146547698                    0.049898549146547698                      0.049898549146547698             -4.0349802877577028e-20     5.9816097583612891   0                     5.9816097583612891    0                       27                            27                          0                     0.99375287475599094  0.11022292178354944 -0.016034237271925919        3.8403576781584796e-12              1.0205083464213691e-10       
                      -3.7196861935012328e-20                          181                                         52.506495436612518                  -4.2091568092062087e-10                -1.620623832223873e-21                4.9034806008064375e-21          1.136884317269794e-23             0.051665577005368404                    0.051665577005368404                      0.051665577005368404             -4.2111711378991461e-20     6.1745174628177315   0                     6.1745174628177315    0                       28                            28                          0                     0.99356944953006432  0.11144188404640679 -0.018483649460522156        3.8666246583400059e-12              1.0591745930047692e-10       
                      -3.882324606180973e-20                          187                                         56.28801141118042                   -4.2429980697324119e-10                -1.6263841267974015e-21                5.0547502069437579e-21          1.3451880317355561e-23             0.054281217557657718                    0.054281217557657718                      0.054281217557657718             -4.3891448149070843e-20     6.3629164189366447   0                     6.3629164189366447    0                       29                            29                          0                     0.99337040180299929  0.11271254847497565 -0.021007447954567944        3.8487881892763893e-12              1.0976624748975331e-10       
                      -4.0440850160616269e-20                          193                                         59.380237099335872                  -4.2750249921205778e-10                -1.6176040988065425e-21                5.216845623468527e-21          1.5738127642047651e-23             0.061968282353592016                    0.061968282353592016                      0.061968282353592016             -4.5673433911726848e-20     6.5452007607100393   0                     6.5452007607100393    0                       30                            30                          0                     0.99315706599896947  0.11402216173627935 -0.023579443402671787        3.7983902677592564e-12              1.1356463775751257e-10       
                      -4.2075411509470856e-20                          199                                         60.738921551168303                  -4.3055518316240035e-10                -1.6345613488545848e-21                5.3928102270662413e-21          1.8291478650081441e-23             0.067217035173341391                    0.067217035173341391                      0.067217035173341391             -4.7486513215187179e-20     6.7243081031388057   0                     6.7243081031388057    0                       31                            31                          0                     0.99292542640302695  0.1153908188987683  -0.026237963339151616        3.8102352087589971e-12              1.1737487296627157e-10       
                      -4.3731502661337988e-20                          205                                         60.947638019801232                  -4.3342754504340366e-10                -1.6560911518671289e-21                5.5839611552459593e-21          2.113646322727784e-23             0.069958223340678763                    0.069958223340678763                      0.069958223340678763             -4.9336600279811223e-20     6.9006407313865141   0                     6.9006407313865141    0                       32                            32                          0                     0.9926737360013731   0.11682300683712654 -0.028989719677910301        3.8339632161521028e-12              1.2120883618242366e-10       
                      -4.5396849838463154e-20                          211                                         64.817436651786167                  -4.3606028053366974e-10                -1.6653471771251679e-21                5.7896533540345245e-21          2.4266062423412645e-23             0.071224181205263526                    0.071224181205263526                      0.071224181205263526             -5.1210769254921092e-20     7.0728370366400961   0                     7.0728370366400961    0                       33                            33                          0                     0.99240282952147407  0.11830857562140479 -0.031813432964825895        3.8309903493259167e-12              1.2503982653174957e-10       
                      -4.7185362611215503e-20                          217                                         69.563681844137335                  -4.386071610877314e-10                -1.7885127727523478e-21                6.0261166951704387e-21          2.8080106828544538e-23             0.083955737342312958                    0.083955737342312958                      0.083955737342312958             -5.3239559413214484e-20     7.2521671360402289   0                     7.2521671360402289    0                       34                            34                          0                     0.99209130677301127  0.11995413578780045 -0.034906962214073363        4.0903924527626331e-12              1.2913021898451221e-10       
                      -4.9004128703426305e-20                          223                                         71.614923680043205                  -4.4085135722194937e-10                -1.8187660922108021e-21                6.2836698025908865e-21          3.2438044357665038e-23             0.093116670812042307                    0.093116670812042307                      0.093116670812042307             -5.5320236550374848e-20     7.4286937310790657   0                     7.4286937310790657    0                       35                            35                          0                     0.99175189093609584  0.12168026661914268 -0.038115337120661064        4.1376120536914608e-12              1.3326783103820369e-10       
                      -5.0777909254520675e-20                          229                                         71.817628695396991                  -4.4263911887520124e-10                -1.7737805510943708e-21                6.5520187697050177e-21          3.6993560170709562e-23             0.096119518677845017                    0.096119518677845017                      0.096119518677845017             -5.7366921584396405e-20     7.5952811467132673   0                     7.5952811467132673    0                       36                            36                          0                     0.99139812660139615  0.12341452299638306 -0.041303074680977464        4.0172110841964626e-12              1.3728504212240013e-10       
                      -5.2479254163325196e-20                          235                                         77.965291277299073                  -4.4393488382354804e-10                -1.7013449088045211e-21                6.8258834223147954e-21          4.1488746662121931e-23             0.09841720256236923                    0.09841720256236923                      0.09841720256236923             -5.9346626332302117e-20     7.749979298394579    0                     7.749979298394579     0                       37                            37                          0                     0.99103696293345644  0.12512499442956737 -0.044413654741722902        3.8395270068146941e-12              1.4112456912921483e-10       