# ODT 1.0
# Table Start
# Title: mmArchive Data Table, Wed Jun 16 18:46:52 EDT 2010
# Columns: {Oxs_CGEvolve::Max mxHxm} {Oxs_CGEvolve::Total energy} {Oxs_CGEvolve::Delta E} {Oxs_CGEvolve::Bracket count} {Oxs_CGEvolve::Line min count} {Oxs_CGEvolve::Cycle count} {Oxs_CGEvolve::Cycle sub count} {Oxs_CGEvolve::Energy calc count} Oxs_CubicAnisotropy::Energy Oxs_UniformExchange::Energy {Oxs_UniformExchange::Max Spin Ang} {Oxs_UniformExchange::Stage Max Spin Ang} {Oxs_UniformExchange::Run Max Spin Ang} Oxs_UZeeman::Energy  Oxs_UZeeman::B       Oxs_UZeeman::Bx      Oxs_UZeeman::By      Oxs_UZeeman::Bz      Oxs_Demag::Energy    Oxs_MinDriver::Iteration {Oxs_MinDriver::Stage iteration} Oxs_MinDriver::Stage Oxs_MinDriver::mx    Oxs_MinDriver::my    Oxs_MinDriver::mz   
# Units:              A/m                         J                          J                         {}                             {}                           {}                            {}                               {}                              J                           J                              deg                                    deg                                      deg                            J                 mT                   mT                   mT                   mT                     J                       {}                           {}                         {}                 {}                   {}                   {}           
              224120.58835801811          1.3427920443336233e-17       1.3427920443336233e-17        0                              0                            1                             1                                1                              0                           0                               0                                      0                                        0                              0                    0                    0                    0                    0                    1.3427920443336233e-17    0                            0                          0                    1                    0                    0                  
              223565.03153558858          1.342464990150058e-17      -3.2705418356535763e-21        1                              0                            1                             1                                2                             -5.7081693418027173e-26         2.8461221852030766e-24             0.032199411345941953                    0.032199411345941953                      0.032199411345941953            0                    0                    0                    0                    0                    1.3424647112460088e-17    1                            1                          0                    0.9999999841439664  -2.9449099409051274e-22 -2.927345865710862e-25
              219670.64026026221          1.3402009217197859e-17      -2.2640684302719634e-20        2                              0                            1                             1                                3                             -3.6530470046852715e-24         1.8214672403736524e-22             0.25759059554241925                    0.25759059554241925                      0.25759059554241925            0                    0                    0                    0                    0                    1.3401830723520827e-17    2                            2                          0                    0.99999898523346376 -2.3604382337616415e-21 -3.9031278209478161e-24
              188250.20057385071          1.3236949439226836e-17      -1.6505977797102358e-19        3                              0                            1                             1                                4                             -2.3305474033275952e-22         1.1636565861090555e-20             2.0583246114464826                     2.0583246114464826                       2.0583246114464826             0                    0                    0                    0                    0                    1.3225545928106078e-17    3                            3                          0                    0.99993513511535703 -1.8929302569858919e-20 -1.3183898417423734e-23
              141554.93371322731          1.2953046930409471e-17      -2.8390250881736596e-19        4                              0                            1                             1                                5                             -2.2580441639840792e-21         1.1413797316943044e-19             6.4304202408279192                     6.4304202408279192                       6.4304202408279192             0                    0                    0                    0                    0                    1.2841167001404024e-17    4                            4                          0                    0.99936060236607183 -5.9791060991187811e-20 -6.6613381477509389e-23
              140612.02733938576          1.2951417273614436e-17      -1.6296567950352502e-21        5                              0                            2                             0                                6                             -2.2736747116029227e-21         1.1444889188878862e-19             6.4220406746843937                     6.4304202408279192                       6.4304202408279192             0                    0                    0                    0                    0                    1.2839242056437249e-17    5                            5                          0                    0.99935614492214619 -5.9946492214635325e-20 -2.7755575615628912e-24
              134060.68926451399          1.2940160226684453e-17      -1.1257046929982038e-20        6                              0                            2                             0                                7                             -2.3854651723274234e-21         1.1674538272308606e-19             6.3633840489503681                     6.4304202408279192                       6.4304202408279192             0                    0                    0                    0                    0                    1.2825800309133695e-17    6                            6                          0                    0.99932424581971968 -6.3019034435285447e-20 -1.6653345369377349e-22
              107076.16013822514          1.285961967282232e-17      -8.0540553862132482e-20        7                              0                            2                             0                                8                             -3.42699724180658e-21         1.4266158021974146e-19             8.1040596215801646                     8.1040596215801646                       8.1040596215801646             0                    0                    0                    0                    0                    1.2720385089844386e-17    7                            7                          0                    0.99902529968157827 -8.6775031604702238e-20 -2.2482016248659421e-22
              183519.1019790431           1.2733342114067796e-17      -1.2627755875452403e-19        8                              0                            2                             0                                9                             -7.0322635202912039e-21         2.6266610662339304e-19             14.001261808517384                     14.001261808517384                       14.001261808517384             0                    0                    0                    0                    0                    1.2477708270964694e-17    8                            8                          0                    0.99796245208877965 -1.4431789097102411e-19 -5.3290705182007512e-22
              181669.24393008105          1.2731674943622585e-17      -1.6671704452106649e-21        9                              0                            3                             0                                10                            -7.0425135287681504e-21         2.6192692415865911e-19             13.938997978406466                     14.001261808517384                       14.001261808517384             0                    0                    0                    0                    0                    1.2476790532992695e-17    9                            9                          0                    0.99795929748836398 -1.4453993557594912e-19 -5.6621374255882987e-22
              168751.74622361391          1.2720490410617938e-17      -1.118453300464791e-20        10                             0                            3                             0                                11                            -7.1159060470079675e-21         2.5721414010752894e-19             13.503154094461239                     14.001261808517384                       14.001261808517384             0                    0                    0                    0                    0                    1.2470392176557417e-17    10                           10                         0                    0.99793667023775823 -1.4649947921441254e-19 -5.6066262743570405e-22
              93351.099393026641          1.2661671934373334e-17      -5.8818476244604629e-20        11                             0                            3                             0                                12                            -7.8054805788512966e-21         2.4861170132614081e-19             10.017972825883607                     14.001261808517384                       14.001261808517384             0                    0                    0                    0                    0                    1.2420865713626044e-17    11                           11                         0                    0.99772140103039419 -1.6339707364920741e-19 -3.4416913763379852e-22
              168313.59805358484          1.2652538536786793e-17      -9.1333975865399263e-21        12                             1                            3                             0                                14                            -8.2860435121042744e-21         2.6723030745049243e-19             9.2100415338348487                     14.001261808517384                       14.001261808517384             0                    0                    0                    0                    0                    1.2393594272848406e-17    12                           12                         0                    0.99756918168851971 -1.7236212457305556e-19 -4.1633363423443371e-22
              133246.95029622797          1.2526116669141322e-17      -1.2642186764547223e-19        13                             1                            4                             1                                15                            -1.1698830215924887e-20         2.9543932739634152e-19             9.9256408224768524                     14.001261808517384                       14.001261808517384             0                    0                    0                    0                    0                    1.2242376171960904e-17    13                           13                         0                    0.99648420755382316 -2.3049340214242875e-19 -6.3837823915946501e-22
              243482.07901564232          1.2440843058734734e-17      -8.5273610406587031e-20        14                             1                            4                             1                                16                            -1.6353060034003734e-20         3.7504657690318849e-19             10.709468686892899                     14.001261808517384                       14.001261808517384             0                    0                    0                    0                    0                    1.2082149541865549e-17    14                           14                         0                    0.99490358144828095 -2.9551916469472419e-19 -5.3290705182007512e-22
              239721.12228746031          1.2438669499555814e-17      -2.173559178919651e-21        15                             1                            5                             0                                17                            -1.6363891558410463e-20         3.734126118328185e-19             10.674488002681759                     14.001261808517384                       14.001261808517384             0                    0                    0                    0                    0                    1.2081620779281407e-17    15                           15                         0                    0.99489999921225425 -2.9476421303797904e-19 -3.8857805861880478e-22
              213468.69836763316          1.2424133425228471e-17      -1.453607432734392e-20        16                             1                            5                             0                                18                            -1.6441200286773798e-20         3.6260282488577991e-19             10.429623738707976                     14.001261808517384                       14.001261808517384             0                    0                    0                    0                    0                    1.2077971800629464e-17    16                           16                         0                    0.99487439666544231 -2.9714009031067687e-19 -2.1649348980190552e-22
              99035.565247556384          1.2350645336881653e-17      -7.3488088346817174e-20        17                             1                            5                             0                                19                            -1.7151885395906409e-20         3.1569813564397759e-19             8.4710130466081726                     14.001261808517384                       14.001261808517384             0                    0                    0                    0                    0                    1.2052099086633583e-17    17                           17                         0                    0.99463650409346882 -3.0742075551870587e-19 -3.1086244689504382e-22
              117168.82290892555          1.2342364973428593e-17      -8.2803634530593492e-21        18                             2                            5                             0                                21                            -1.753832803724598e-20         3.1784983393145106e-19             9.0901676497297892                     14.001261808517384                       14.001261808517384             0                    0                    0                    0                    0                    1.2042053467534388e-17    18                           18                         0                    0.99450543671355884 -3.1049607329691754e-19 -2.220446049250313e-22
              162897.27916942476          1.2278086889509326e-17      -6.4278083919267048e-20        19                             2                            6                             1                                22                            -2.0954614810238469e-20         3.5447116834439925e-19             12.2881333204139                       14.001261808517384                       14.001261808517384             0                    0                    0                    0                    0                    1.1944570335975166e-17    19                           19                         0                    0.99328310677302145 -3.4778846469407655e-19 -4.440892098500626e-23
              135248.871512521            1.2162037223595987e-17      -1.160496659133405e-19        21                             2                            7                             2                                24                            -2.6204700700658781e-20         4.0328361408810127e-19             11.912928047168945                     14.001261808517384                       14.001261808517384             0                    0                    0                    0                    0                    1.1784958310208544e-17    20                           20                         0                    0.99125344508176105 -4.0136782786248657e-19  4.440892098500626e-23
              239475.27086718433          1.2065386879279734e-17      -9.6650344316253082e-20        22                             2                            7                             2                                25                            -3.3037732779846298e-20         5.1163671223097498e-19             11.498919286821309                     14.001261808517384                       14.001261808517384             0                    0                    0                    0                    0                    1.1586787899828604e-17    21                           21                         0                    0.98829301169177242 -4.6452841573341171e-19  2.1649348980190552e-22
              233158.64419789394          1.2063128357362822e-17      -2.2585219169118826e-21        23                             2                            8                             0                                26                            -3.3049732493477521e-20         5.0997994951980934e-19             11.456081015868142                     14.001261808517384                       14.001261808517384             0                    0                    0                    0                    0                    1.1586198140336489e-17    22                           22                         0                    0.98828757847965854 -4.6419534882602421e-19  7.7715611723760954e-23
              189031.49641541034          1.2048463356636231e-17      -1.4665000726589524e-20        24                             2                            8                             0                                27                            -3.3134955964307856e-20         4.9948331624727696e-19             11.162063570436828                     14.001261808517384                       14.001261808517384             0                    0                    0                    0                    0                    1.1582114996353262e-17    23                           23                         0                    0.98824901385587094 -4.6520565177843307e-19  1.1657341758564143e-22
              172937.65845727141          1.2003282088266113e-17      -4.5181268370118263e-20        25                             2                            8                             0                                28                            -3.3893153180249212e-20         4.8487092586661397e-19             9.2180881025420636                     14.001261808517384                       14.001261808517384             0                    0                    0                    0                    0                    1.1552304315579749e-17    24                           24                         0                    0.9879070958315298  -4.7298831518105542e-19  1.3322676295501878e-22
              121612.84192698424          1.2001889010197599e-17      -1.3930780685146779e-21        25                             3                            8                             0                                29                            -3.3772899489553675e-20         4.7928113902947134e-19             9.4682278599926963                     14.001261808517384                       14.001261808517384             0                    0                    0                    0                    0                    1.1556380770657681e-17    25                           25                         0                    0.98796123518628087 -4.7023496207998502e-19  1.3877787807814458e-22
              114100.98018422344          1.1965905828176968e-17      -3.5983182020630787e-20        26                             3                            9                             1                                30                            -3.5939179516778444e-20         5.1155121808055736e-19             8.4496527652773228                     14.001261808517384                       14.001261808517384             0                    0                    0                    0                    0                    1.1490293789613189e-17    26                           26                         0                    0.98696243187985822 -4.8785420148078629e-19  3.9968028886505634e-22
              93008.466207682359          1.1913186315352455e-17      -5.2719512824513897e-20        28                             3                            10                            2                                32                            -3.9510342951913438e-20         5.6099228358401409e-19             8.4234563958753608                     14.001261808517384                       14.001261808517384             0                    0                    0                    0                    0                    1.1391704374720353e-17    27                           27                         0                    0.98522107237746992 -5.1606496853651153e-19  1.6098233857064771e-22
              184021.19708329625          1.189430804042405e-17      -1.8878274928403733e-20        29                             4                            10                            2                                34                            -4.3264340318179649e-20         6.4727267181110327e-19             9.194237371178783                      14.001261808517384                       14.001261808517384             0                    0                    0                    0                    0                    1.1290299708931127e-17    28                           28                         0                    0.98323801013341161 -5.4685145300936706e-19  2.6090241078691178e-22
              141505.00687546135          1.1790581314053829e-17      -1.0372672637022125e-19        30                             4                            11                            3                                35                            -5.0740530782231116e-20         7.5910547390257004e-19             10.808061002433858                     14.001261808517384                       14.001261808517384             0                    0                    0                    0                    0                    1.108221637093349e-17    29                           29                         0                    0.97868536411989038 -6.063927138200142e-19  3.5527136788005008e-22
              181645.63309702263          1.175293457598116e-17      -3.7646738072668316e-20        31                             4                            11                            3                                36                            -5.5904431781772935e-20         8.7788152503699004e-19             12.660341975187478                     14.001261808517384                       14.001261808517384             0                    0                    0                    0                    0                    1.0930957482725944e-17    30                           30                         0                    0.97481749414730845 -6.4863669990700148e-19  1.4988010832439613e-22
# Table End
