# ODT 1.0
# Table Start
# Title: mmArchive Data Table, Wed Jun 16 18:46:51 EDT 2010
# Columns: {Oxs_CGEvolve::Max mxHxm} {Oxs_CGEvolve::Total energy} {Oxs_CGEvolve::Delta E} {Oxs_CGEvolve::Bracket count} {Oxs_CGEvolve::Line min count} {Oxs_CGEvolve::Cycle count} {Oxs_CGEvolve::Cycle sub count} {Oxs_CGEvolve::Energy calc count} Oxs_CubicAnisotropy::Energy Oxs_UniformExchange::Energy {Oxs_UniformExchange::Max Spin Ang} {Oxs_UniformExchange::Stage Max Spin Ang} {Oxs_UniformExchange::Run Max Spin Ang} Oxs_UZeeman::Energy  Oxs_UZeeman::B       Oxs_UZeeman::Bx      Oxs_UZeeman::By      Oxs_UZeeman::Bz      Oxs_Demag::Energy    Oxs_MinDriver::Iteration {Oxs_MinDriver::Stage iteration} Oxs_MinDriver::Stage Oxs_MinDriver::mx    Oxs_MinDriver::my    Oxs_MinDriver::mz   
# Units:              A/m                         J                          J                         {}                             {}                           {}                            {}                               {}                              J                           J                              deg                                    deg                                      deg                            J                 mT                   mT                   mT                   mT                     J                       {}                           {}                         {}                 {}                   {}                   {}           
              224120.58835801811          1.3427920443336233e-17       1.3427920443336233e-17        0                              0                            1                             1                                1                              0                           0                               0                                      0                                        0                              0                    0                    0                    0                    0                    1.3427920443336233e-17    0                            0                          0                    1                    0                    0                  
              223565.03153558858          1.342464990150058e-17      -3.2705418356535763e-21        1                              0                            1                             1                                2                             -5.7081693418027173e-26         2.8461221852030766e-24             0.032199411345941953                    0.032199411345941953                      0.032199411345941953            0                    0                    0                    0                    0                    1.3424647112460088e-17    1                            1                          0                    0.9999999841439664  -2.9449099409051274e-22 -2.927345865710862e-25
              219670.64026026221          1.3402009217197859e-17      -2.2640684302719634e-20        2                              0                            1                             1                                3                             -3.6530470046852715e-24         1.8214672403736524e-22             0.25759059554241925                    0.25759059554241925                      0.25759059554241925            0                    0                    0                    0                    0                    1.3401830723520827e-17    2                            2                          0                    0.99999898523346376 -2.3604382337616415e-21 -3.9031278209478161e-24
              188250.20057385071          1.3236949439226836e-17      -1.6505977797102358e-19        3                              0                            1                             1                                4                             -2.3305474033275952e-22         1.1636565861090555e-20             2.0583246114464826                     2.0583246114464826                       2.0583246114464826             0                    0                    0                    0                    0                    1.3225545928106078e-17    3                            3                          0                    0.99993513511535703 -1.8929302569858919e-20 -1.3183898417423734e-23
              141554.93371322731          1.2953046930409471e-17      -2.8390250881736596e-19        4                              0                            1                             1                                5                             -2.2580441639840792e-21         1.1413797316943044e-19             6.4304202408279192                     6.4304202408279192                       6.4304202408279192             0                    0                    0                    0                    0                    1.2841167001404024e-17    4                            4                          0                    0.99936060236607183 -5.9791060991187811e-20 -6.6613381477509389e-23
              140612.02733938576          1.2951417273614436e-17      -1.6296567950352502e-21        5                              0                            2                             0                                6                             -2.2736747116029227e-21         1.1444889188878862e-19             6.4220406746843937                     6.4304202408279192                       6.4304202408279192             0                    0                    0                    0                    0                    1.2839242056437249e-17    5                            5                          0                    0.99935614492214619 -5.9946492214635325e-20 -2.7755575615628912e-24
              134060.68926451399          1.2940160226684453e-17      -1.1257046929982038e-20        6                              0                            2                             0                                7                             -2.3854651723274234e-21         1.1674538272308606e-19             6.3633840489503681                     6.4304202408279192                       6.4304202408279192             0                    0                    0                    0                    0                    1.2825800309133695e-17    6                            6                          0                    0.99932424581971968 -6.3019034435285447e-20 -1.6653345369377349e-22
              107076.16013822514          1.285961967282232e-17      -8.0540553862132482e-20        7                              0                            2                             0                                8                             -3.42699724180658e-21         1.4266158021974146e-19             8.1040596215801646                     8.1040596215801646                       8.1040596215801646             0                    0                    0                    0                    0                    1.2720385089844386e-17    7                            7                          0                    0.99902529968157827 -8.6775031604702238e-20 -2.2482016248659421e-22
              183519.1019790431           1.2733342114067796e-17      -1.2627755875452403e-19        8                              0                            2                             0                                9                             -7.0322635202912039e-21         2.6266610662339304e-19             14.001261808517384                     14.001261808517384                       14.001261808517384             0                    0                    0                    0                    0                    1.2477708270964694e-17    8                            8                          0                    0.99796245208877965 -1.4431789097102411e-19 -5.3290705182007512e-22
              181669.24393008105          1.2731674943622585e-17      -1.6671704452106649e-21        9                              0                            3                             0                                10                            -7.0425135287681504e-21         2.6192692415865911e-19             13.938997978406466                     14.001261808517384                       14.001261808517384             0                    0                    0                    0                    0                    1.2476790532992695e-17    9                            9                          0                    0.99795929748836398 -1.4453993557594912e-19 -5.6621374255882987e-22
              168751.74622361391          1.2720490410617938e-17      -1.118453300464791e-20        10                             0                            3                             0                                11                            -7.1159060470079675e-21         2.5721414010752894e-19             13.503154094461239                     14.001261808517384                       14.001261808517384             0                    0                    0                    0                    0                    1.2470392176557417e-17    10                           10                         0                    0.99793667023775823 -1.4649947921441254e-19 -5.6066262743570405e-22
              93351.099393026641          1.2661671934373334e-17      -5.8818476244604629e-20        11                             0                            3                             0                                12                            -7.8054805788512966e-21         2.4861170132614081e-19             10.017972825883607                     14.001261808517384                       14.001261808517384             0                    0                    0                    0                    0                    1.2420865713626044e-17    11                           11                         0                    0.99772140103039419 -1.6339707364920741e-19 -3.4416913763379852e-22
              168313.59805358484          1.2652538536786793e-17      -9.1333975865399263e-21        12                             1                            3                             0                                14                            -8.2860435121042744e-21         2.6723030745049243e-19             9.2100415338348487                     14.001261808517384                       14.001261808517384             0                    0                    0                    0                    0                    1.2393594272848406e-17    12                           12                         0                    0.99756918168851971 -1.7236212457305556e-19 -4.1633363423443371e-22
              133289.36917719242          1.2526152260121368e-17      -1.2638627666542559e-19        13                             1                            4                             1                                15                            -1.1698210088657234e-20         2.9545121449308702e-19             9.9270182971192682                     14.001261808517384                       14.001261808517384             0                    0                    0                    0                    0                    1.2242399255716938e-17    13                           13                         0                    0.99648440423679963 -2.3083757128006253e-19 -2.8865798640254071e-22
              243293.05479191037          1.244088162702148e-17      -8.5270633099887198e-20        14                             1                            4                             1                                16                            -1.6351474007212254e-20         3.7503685829708563e-19             10.712354981385294                     14.001261808517384                       14.001261808517384             0                    0                    0                    0                    0                    1.2082196242731608e-17    14                           14                         0                    0.99490412618337176 -2.9447555505157653e-19 -7.8270723236073539e-22
              239532.92120311136          1.2438707086251031e-17      -2.1745407704487125e-21        15                             1                            5                             0                                17                            -1.636231429652641e-20         3.7340223997501765e-19             10.677308684110136                     14.001261808517384                       14.001261808517384             0                    0                    0                    0                    0                    1.208166716057254e-17    15                           15                         0                    0.99490054138988215 -2.9594104944408175e-19 -4.662936703425657e-22
              213286.42657644345          1.2424164638056435e-17      -1.4542448194596426e-20        16                             1                            5                             0                                18                            -1.6439685993178882e-20         3.6258831888847716e-19             10.431985132114606                     14.001261808517384                       14.001261808517384             0                    0                    0                    0                    0                    1.2078016005161138e-17    16                           16                         0                    0.99487492029910651 -2.9674041002181183e-19 -5.2180482157382356e-22
              99048.378015417431          1.2350656918621619e-17      -7.3507719434816761e-20        17                             1                            5                             0                                19                            -1.7150973849283486e-20         3.1567819012377419e-19             8.4697019173960246                     14.001261808517384                       14.001261808517384             0                    0                    0                    0                    0                    1.2052129702347128e-17    17                           17                         0                    0.99463683914940415 -3.0621061242186441e-19 -3.1641356201816959e-22
              117195.73148605823          1.2342386469099879e-17      -8.2704495217401924e-21        18                             2                            5                             0                                21                            -1.7537365806092577e-20         3.1783467146361809e-19             9.0929981048393405                     14.001261808517384                       14.001261808517384             0                    0                    0                    0                    0                    1.2042089163442352e-17    18                           18                         0                    0.99450579224741265 -3.1085134466479759e-19 -5.3845816694320094e-22
              162841.88495287989          1.2278123890404279e-17      -6.4262578695599141e-20        19                             2                            6                             1                                22                            -2.0953039868804832e-20         3.5445726344796573e-19             12.289217177541403                     14.001261808517384                       14.001261808517384             0                    0                    0                    0                    0                    1.1944619666825119e-17    19                           19                         0                    0.99328369646099568 -3.4765523793112151e-19 -4.3298697960381104e-22
              138250.35120285474          1.216431105794789e-17      -1.1381283245638861e-19        21                             2                            7                             2                                24                            -2.6206485985302888e-20         4.0497360722239958e-19             12.046502756673432                     14.001261808517384                       14.001261808517384             0                    0                    0                    0                    0                    1.1785543936710794e-17    20                           20                         0                    0.99125282503562995 -4.0146774793470287e-19 -2.3314683517128285e-22
              225589.17107895311          1.2067528214029747e-17      -9.6782843918143769e-20        22                             2                            7                             2                                25                            -3.3044344296703508e-20         5.1272137516812082e-19             11.743772014907872                     14.001261808517384                       14.001261808517384             0                    0                    0                    0                    0                    1.158785118315833e-17    21                           21                         0                    0.98829002536393862 -4.6475046033833677e-19 -1.4432899320127036e-22
              220238.38616195761          1.2065169474289977e-17      -2.3587397397704889e-21        23                             2                            8                             0                                26                            -3.3057012263174209e-20         5.1101800618915873e-19             11.70240287910371                      14.001261808517384                       14.001261808517384             0                    0                    0                    0                    0                    1.1587208480363992e-17    22                           22                         0                    0.98828428620551878 -4.6528336739015686e-19 -5.6066262743570405e-22
              182978.81365758891          1.204986002003357e-17      -1.5309454256406032e-20        24                             2                            8                             0                                27                            -3.3147051262234074e-20         5.0024476381072004e-19             11.412819303826035                     14.001261808517384                       14.001261808517384             0                    0                    0                    0                    0                    1.1582762307485085e-17    23                           23                         0                    0.98824352047105191 -4.661049324283795e-19 -4.2188474935755949e-22
              185717.51884014084          1.2003119044828576e-17      -4.6740975204994038e-20        25                             2                            8                             0                                28                            -3.3952249907658489e-20         4.8654515837212869e-19             9.2857161007005953                     14.001261808517384                       14.001261808517384             0                    0                    0                    0                    0                    1.1550526136364106e-17    24                           24                         0                    0.98788027108851628 -4.7258863489219043e-19 -4.6074255521943997e-22
              133166.46354603104          1.2001552512028826e-17      -1.5665327997501652e-21        25                             3                            8                             0                                29                            -3.3819719506035879e-20         4.8031014668682727e-19             9.4499975102143594                     14.001261808517384                       14.001261808517384             0                    0                    0                    0                    0                    1.1555062084848034e-17    25                           25                         0                    0.98793995990096439 -4.7046810891515636e-19 -3.8302694349567901e-22
              122497.53693994075          1.196646977635168e-17      -3.5082735677145003e-20        26                             3                            9                             1                                30                            -3.5937135060231328e-20         5.1213417696018739e-19             8.5103717352053661                     14.001261808517384                       14.001261808517384             0                    0                    0                    0                    0                    1.1490272734451726e-17    26                           26                         0                    0.98696304506143906 -4.8857584644679259e-19 -3.2751579226442119e-22
              95955.47606113537           1.1915094570882531e-17      -5.1375205469150879e-20        27                             3                            10                            2                                31                            -3.9473351870482153e-20         5.6191810951380212e-19             8.4555256192469184                     14.001261808517384                       14.001261808517384             0                    0                    0                    0                    0                    1.1392649813239211e-17    27                           27                         0                    0.98523930436020657 -5.1676440904202537e-19 -3.5527136788005008e-22
              178574.6698757566           1.1898496034176902e-17      -1.6598536705627827e-20        28                             4                            10                            2                                33                            -4.291750655142979e-20         6.4169411381095205e-19             9.1082557881167823                     14.001261808517384                       14.001261808517384             0                    0                    0                    0                    0                    1.1299719426917381e-17    28                           28                         0                    0.98342797989634412 -5.4284354789047026e-19 -1.9428902930940239e-22
              146499.45194322939          1.1794836786160376e-17      -1.0365924801652661e-19        29                             4                            11                            3                                34                            -5.0082238738296101e-20         7.4398160761073112e-19             10.58494763883157                      14.001261808517384                       14.001261808517384             0                    0                    0                    0                    0                    1.110093741728794e-17    29                           29                         0                    0.97913020823449004 -5.9886540171305566e-19 -4.9960036108132042e-23
              174862.24345208891          1.1750698783107195e-17      -4.4138003053180694e-20        30                             4                            11                            3                                35                            -5.5573728066380259e-20         8.6509941688521817e-19             12.53442895209332                      14.001261808517384                       14.001261808517384             0                    0                    0                    0                    0                    1.0941173094288357e-17    30                           30                         0                    0.9750942374075271  -6.4392935428259075e-19  2.0539125955565397e-22
# Table End
