# ODT 1.0
# Table Start
# Title: mmArchive Data Table, Wed Jun 16 18:46:57 EDT 2010
# Columns: {Oxs_EulerEvolve:evolve:Total energy} {Oxs_EulerEvolve:evolve:Energy calc count} {Oxs_EulerEvolve:evolve:Max dm/dt} Oxs_EulerEvolve:evolve:dE/dt {Oxs_EulerEvolve:evolve:Delta E} Oxs_CubicAnisotropy::Energy Oxs_UniformExchange::Energy {Oxs_UniformExchange::Max Spin Ang} {Oxs_UniformExchange::Stage Max Spin Ang} {Oxs_UniformExchange::Run Max Spin Ang} Oxs_TimeDriver::Iteration {Oxs_TimeDriver::Stage iteration} Oxs_TimeDriver::Stage Oxs_TimeDriver::mx   Oxs_TimeDriver::my   Oxs_TimeDriver::mz   {Oxs_TimeDriver::Last time step} {Oxs_TimeDriver::Simulation time}
# Units:                     J                                       {}                                   deg/ns                           J/s                             J                              J                           J                              deg                                    deg                                      deg                              {}                            {}                          {}                   {}                   {}                   {}                          s                                 s                
                    6.888087918353307e-18                      1                                      28462.110938910009             -1.2877746198910142e-05            0                            -3.0734285782265178e-19         7.1954307761759589e-18             24.162177777666948                     24.162177777666948                       24.162177777666948               0                             0                           0                     0.79514299943138589  0.53327411777049993  0.26907868974539872        0                                0                         
                    6.8835672158796068e-18                      2                                      28450.136539740495             -1.2869113042851186e-05           -4.5207024736999779e-21          -3.0762797250719983e-19         7.1911951883868066e-18             24.158184524952915                     24.162177777666948                       24.162177777666948               1                             1                           0                     0.79514494559237159  0.53327537182772222  0.26907945013053425        3.5134428438788745e-16              3.5134428438788745e-16       
                    6.8779213187675946e-18                      3                                      28435.176667553511             -1.2858331806402603e-05           -5.6458971120125368e-21          -3.0798450964078788e-19         7.1859058284083824e-18             24.153193460527564                     24.162177777666948                       24.162177777666948               2                             2                           0                     0.79514737613902253  0.53327693794430231  0.26908039991644922        4.3918035548485931e-16              7.9052463987274671e-16       
                    6.8708717215410021e-18                      4                                      28416.489527444224             -1.2844871193863717e-05           -7.0495972265924487e-21          -3.0843040535140482e-19         7.1793021268924064e-18             24.146955412423019                     24.162177777666948                       24.162177777666948               3                             3                           0                     0.79515041095919969  0.53327889331901601  0.26908158606327887        5.4897544435607417e-16              1.3395000842288208e-15       
                    6.862071855328085e-18                      5                                      28393.150450199864             -1.282807028851377e-05           -8.799866212916582e-21          -3.0898812474697505e-19         7.1710599800750605e-18             24.139159072658366                     24.162177777666948                       24.162177777666948               4                             4                           0                     0.79515419923614694  0.53328133399352706  0.26908306705288804        6.8621930544509264e-16              2.0257193896739135e-15       
                    6.851090943409031e-18                      6                                      28364.007623603546             -1.2807107932788027e-05           -1.0980911919054367e-20          -3.0968581911792301e-19         7.1607767625269539e-18             24.129415550528886                     24.162177777666948                       24.162177777666948               5                             5                           0                     0.79515892639482555  0.53328437930827111  0.26908491564755671        8.5777413180636583e-16              2.8834935214802793e-15       
                    6.8373943034442251e-18                      7                                      28327.627573738613             -1.2780965442452809e-05           -1.3696639964805862e-20          -3.1055878616935919e-19         7.1479530896135841e-18             24.1172391123628                       24.162177777666948                       24.162177777666948               6                             6                           0                     0.79516482257539023  0.53328817733097023  0.26908722227084758        1.0722176647579573e-15              3.9557111862382366e-15       
                    6.8203194726693419e-18                      8                                      28282.228294892564             -1.2748381530069691e-05           -1.7074830774883126e-20          -3.1165131646872164e-19         7.131970789138063e-18             24.102023180538424                     24.162177777666948                       24.162177777666948               7                             7                           0                     0.79517217290052666  0.5332929114233258   0.26909009912917931        1.3402720809474466e-15              5.2959832671856834e-15       
                    6.7990475187245e-18                      9                                      28225.597661899268             -1.2707798322993549e-05           -2.1271953944841962e-20          -3.1301903399083264e-19         7.1120665527153321e-18             24.083010446623209                     24.162177777666948                       24.162177777666948               8                             8                           0                     0.79518132980791445  0.5332988081109471   0.26909368520231669        1.6753401011843083e-15              6.9713233683699917e-15       
                    6.7725689557136201e-18                      10                                     28154.994575338667             -1.2657297524640874e-05           -2.6478563010880188e-20          -3.1473187144246153e-19         7.0873008271560816e-18             24.059255688081038                     24.162177777666948                       24.162177777666948               9                             9                           0                     0.79519272769221794  0.53330614639907248  0.26909815223271127        2.0941751264803852e-15              9.0654984948503765e-15       
                    6.7396438661794033e-18                      11                                     28067.030291845029             -1.2594526196415147e-05           -3.2925089534216202e-20          -3.1687786481630062e-19         7.0565217309957036e-18             24.029579556420391                     24.162177777666948                       24.162177777666948               10                            10                          0                     0.79520690001883387  0.53331526861583767  0.26910371183030235        2.6177189081004818e-15              1.1683217402950859e-14       
# Table End
