# ODT 1.0
# Table Start
# Title: mmArchive Data Table, Wed Jun 16 18:47:00 EDT 2010
# Columns: {Oxs_EulerEvolve:evolve:Total energy} {Oxs_EulerEvolve:evolve:Energy calc count} {Oxs_EulerEvolve:evolve:Max dm/dt} Oxs_EulerEvolve:evolve:dE/dt {Oxs_EulerEvolve:evolve:Delta E} Oxs_CubicAnisotropy::Energy Oxs_UniformExchange::Energy {Oxs_UniformExchange::Max Spin Ang} {Oxs_UniformExchange::Stage Max Spin Ang} {Oxs_UniformExchange::Run Max Spin Ang} Oxs_TimeDriver::Iteration {Oxs_TimeDriver::Stage iteration} Oxs_TimeDriver::Stage Oxs_TimeDriver::mx   Oxs_TimeDriver::my   Oxs_TimeDriver::mz   {Oxs_TimeDriver::Last time step} {Oxs_TimeDriver::Simulation time}
# Units:                     J                                       {}                                   deg/ns                           J/s                             J                              J                           J                              deg                                    deg                                      deg                              {}                            {}                          {}                   {}                   {}                   {}                          s                                 s                
                    6.4107755300065765e-18                      1                                      31378.069138498202             -1.2641125429260185e-05            0                            -3.1638072499893584e-19         6.727156255005512e-18             23.388245564023631                     23.388245564023631                       23.388245564023631               0                             0                           0                     0.79276119744796503  0.53620714652461232  0.26980348465149151        0                                0                         
                    6.4067500557935081e-18                      2                                      31368.25786108353              -1.2633233453947769e-05           -4.0254742130679112e-21          -3.1659849473673807e-19         6.7233485505302462e-18             23.382178050910586                     23.388245564023631                       23.388245564023631               1                             1                           0                     0.79276326788595897  0.5362083242475949   0.26980407048151439        3.1869392459623519e-16              3.1869392459623519e-16       
                    6.4017223460314129e-18                      3                                      31356.000092242684             -1.2623377104561698e-05           -5.027709762095744e-21          -3.1687085780087556e-19         6.718593203832288e-18             23.374596069828563                     23.388245564023631                       23.388245564023631               2                             2                           0                     0.79276585391208665  0.53620979503130006  0.26980480208229912        3.9836740574529397e-16              7.1706133034152916e-16       
                    6.395444160044122e-18                      4                                      31340.687758421453             -1.2611070122205473e-05           -6.2781859872903069e-21          -3.1721154716745295e-19         6.7126557072115753e-18             23.365122357375181                     23.388245564023631                       23.388245564023631               3                             3                           0                     0.79276908328931173  0.53621163137235039  0.26980571551122173        4.9795925718161746e-16              1.2150205875231466e-15       
                    6.3876064947014614e-18                      5                                      31321.562754454622             -1.2595707389431151e-05           -7.8376653426606427e-21          -3.1763777644781877e-19         6.7052442711492807e-18             23.353286093594299                     23.388245564023631                       23.388245564023631               4                             4                           0                     0.79277311508622861  0.53621392346118757  0.26980685562419371        6.224490714770219e-16              1.8374696590001684e-15       
                    6.3778251178084038e-18                      6                                      31297.680543941144             -1.257653672519117e-05           -9.7813768930579122e-21          -3.1817113649392204e-19         6.695996254302326e-18             23.338499937954978                     23.388245564023631                       23.388245564023631               5                             5                           0                     0.79277814714888262  0.53621678336534173  0.26980827815478803        7.780613393462773e-16              2.6155309983464457e-15       
                    6.3656228864425419e-18                      7                                      31267.865274221676             -1.2552624465698265e-05           -1.2202231365861756e-20          -3.1883873082998026e-19         6.6844616172725225e-18             23.320031561576439                     23.388245564023631                       23.388245564023631               6                             6                           0                     0.79278442524361614  0.53622035012519564  0.26981005224619897        9.7257667418284672e-16              3.5881076725292926e-15       
                    6.3504082670379826e-18                      8                                      31230.654621722351             -1.2522813737261094e-05           -1.5214619404559622e-20          -3.1967461767981274e-19         6.670082884717795e-18             23.296968431450075                     23.388245564023631                       23.388245564023631               7                             7                           0                     0.79279225418030963  0.53622479591705607  0.26981226351237964        1.2157208427285583e-15              4.8038285152578511e-15       
                    6.3314494472555779e-18                      9                                      31184.232318755705             -1.2485674301549029e-05           -1.8958819782404256e-20          -3.2072164765377234e-19         6.6521710949093503e-18             23.268174363773646                     23.388245564023631                       23.388245564023631               8                             8                           0                     0.79280201124401228  0.53623033343740345  0.26981501770379573        1.5196510534106979e-15              6.3234795686685488e-15       
                    6.3078434584993312e-18                      10                                     31126.346076082329             -1.2439442951191264e-05           -2.3605988756247233e-20          -3.2203381505088965e-19         6.6298772735502209e-18             23.232236104439629                     23.388245564023631                       23.388245564023631               9                             9                           0                     0.79281416225531065  0.53623722464018464  0.26981844504155922        1.8995638167633725e-15              8.2230433854319209e-15       
                    6.2784798569171739e-18                      11                                     31054.208458750145             -1.2381953748513553e-05           -2.9363601582157266e-20          -3.2367928023194377e-19         6.6021591371491177e-18             23.187397930772597                     23.388245564023631                       23.388245564023631               10                            10                          0                     0.79282928052385593  0.53624579090036983  0.26982270525327856        2.3744547709542153e-15              1.0597498156386136e-14       
# Table End
