# ODT 1.0
# Table Start
# Title: mmArchive Data Table, Wed Jun 16 18:46:58 EDT 2010
# Columns: {Oxs_EulerEvolve:evolve:Total energy} {Oxs_EulerEvolve:evolve:Energy calc count} {Oxs_EulerEvolve:evolve:Max dm/dt} Oxs_EulerEvolve:evolve:dE/dt {Oxs_EulerEvolve:evolve:Delta E} Oxs_CubicAnisotropy::Energy Oxs_UniformExchange::Energy {Oxs_UniformExchange::Max Spin Ang} {Oxs_UniformExchange::Stage Max Spin Ang} {Oxs_UniformExchange::Run Max Spin Ang} Oxs_TimeDriver::Iteration {Oxs_TimeDriver::Stage iteration} Oxs_TimeDriver::Stage Oxs_TimeDriver::mx   Oxs_TimeDriver::my   Oxs_TimeDriver::mz   {Oxs_TimeDriver::Last time step} {Oxs_TimeDriver::Simulation time}
# Units:                     J                                       {}                                   deg/ns                           J/s                             J                              J                           J                              deg                                    deg                                      deg                              {}                            {}                          {}                   {}                   {}                   {}                          s                                 s                
                    2.6910415928896496e-18                      1                                      26549.098800051088             -3.8290642570514392e-06            0                             4.9745771815279593e-19         2.1935838747368533e-18             23.832877308341594                     23.832877308341594                       23.832877308341594               0                             0                           0                     0.79438377736450294  0.53410373419947166  0.26897938247535325        0                                0                         
                    2.6896005374796364e-18                      2                                      26539.803431409786             -3.8265145807999816e-06           -1.4410554100128981e-21           4.9736568182870113e-19         2.1922348556509356e-18             23.825356728043413                     23.832877308341594                       23.832877308341594               1                             1                           0                     0.79438540233479216  0.53410598778143581  0.26897991135822363        3.7666061945502864e-16              3.7666061945502864e-16       
                    2.6878007930766169e-18                      3                                      26528.188924903297             -3.8233303807332467e-06           -1.7997444030196889e-21           4.9725055596565973e-19         2.190550237110957e-18             23.815959004425896                     23.832877308341594                       23.832877308341594               2                             2                           0                     0.79438743120810029  0.53410880297860774  0.26898057156679056        4.7082577431878584e-16              8.4748639377381448e-16       
                    2.6855535706652341e-18                      4                                      26513.678134997623             -3.8193546498074862e-06           -2.2472224113829253e-21           4.9710652311375659e-19         2.1884470475514773e-18             23.804216537709049                     23.832877308341594                       23.832877308341594               3                             3                           0                     0.79438996364800096  0.53411231919593571  0.26898139543036453        5.8853221789848225e-16              1.4360186116722966e-15       
                    2.6827483782985303e-18                      5                                      26495.551107345502             -3.8143920382303468e-06           -2.8051923667036636e-21           4.9692628629473579e-19         2.1858220920037947e-18             23.789545774254773                     23.832877308341594                       23.832877308341594               4                             4                           0                     0.79439312349948821  0.53411671013018014  0.268982423079416          7.3566527237310279e-16              2.1716838840453997e-15       
                    2.6792478710510181e-18                      6                                      26472.910201301722             -3.8081997748796747e-06           -3.5005072475121383e-21           4.9670068513870557e-19         2.1825471859123124e-18             23.771218748077281                     23.832877308341594                       23.832877308341594               5                             5                           0                     0.79439706442463753  0.53412219203050004  0.26898370423891649        9.1958159046637847e-16              3.0912654745117782e-15       
                    2.6748815662870714e-18                      7                                      26444.636950994289             -3.8004766003305772e-06           -4.3663047639468375e-21           4.9641820835680979e-19         2.1784633579302614e-18             23.748327803761434                     23.832877308341594                       23.832877308341594               6                             6                           0                     0.79440197671999513  0.53412903385067034  0.26898530038287888        1.1494769880829732e-15              4.2407424625947512e-15       
                    2.6694382244161558e-18                      8                                      26409.338851675133             -3.7908493688237676e-06           -5.4433418709154892e-21           4.9606437246177163e-19         2.1733738519543841e-18             23.719741960692247                     23.832877308341594                       23.832877308341594               7                             7                           0                     0.794408095486421    0.53413756967030945  0.26898728729246912        1.4368462351037164e-15              5.6775886976984678e-15       
                    2.6626566905142178e-18                      9                                      26365.283941598314             -3.7788569741576781e-06           -6.7815339019379775e-21           4.9562092692971326e-19         2.1670357635845045e-18             23.684053084192623                     23.832877308341594                       23.832877308341594               8                             8                           0                     0.7944157102975512   0.53414821380506017  0.26898975804472219        1.7960577938796454e-15              7.4736464915781132e-15       
                    2.6542150097403453e-18                      10                                     26310.320726748381             -3.7639312950950293e-06           -8.4416807738723414e-21           4.9506483275564069e-19         2.1591501769847048e-18             23.639509710592446                     23.832877308341594                       23.832877308341594               9                             9                           0                     0.79442517644722954  0.53416147905158096  0.26899282642609962        2.2450722423495571e-15              9.7187187339276695e-15       
                    2.6437176864722893e-18                      11                                     26241.78070213538              -3.7453749716059353e-06           -1.0497323268056334e-20           4.9436694323095363e-19         2.1493507432413357e-18             23.583936050503173                     23.832877308341594                       23.832877308341594               10                            10                          0                     0.79443692772163921  0.53417799850465264  0.26899663070374757        2.8063403029369462e-15              1.2525059036864617e-14       
# Table End
