# ODT 1.0
# Table Start
# Title: mmArchive Data Table, Wed Jun 16 18:46:58 EDT 2010
# Columns: {Oxs_EulerEvolve:evolve:Total energy} {Oxs_EulerEvolve:evolve:Energy calc count} {Oxs_EulerEvolve:evolve:Max dm/dt} Oxs_EulerEvolve:evolve:dE/dt {Oxs_EulerEvolve:evolve:Delta E} Oxs_CubicAnisotropy::Energy Oxs_UniformExchange::Energy {Oxs_UniformExchange::Max Spin Ang} {Oxs_UniformExchange::Stage Max Spin Ang} {Oxs_UniformExchange::Run Max Spin Ang} Oxs_TimeDriver::Iteration {Oxs_TimeDriver::Stage iteration} Oxs_TimeDriver::Stage Oxs_TimeDriver::mx   Oxs_TimeDriver::my   Oxs_TimeDriver::mz   {Oxs_TimeDriver::Last time step} {Oxs_TimeDriver::Simulation time}
# Units:                     J                                       {}                                   deg/ns                           J/s                             J                              J                           J                              deg                                    deg                                      deg                              {}                            {}                          {}                   {}                   {}                   {}                          s                                 s                
                    1.0971556753678041e-17                      1                                      32395.725253022931             -2.0173681070040485e-05            0                             5.3325943022298093e-19         1.043829732345506e-17             23.616550525979314                     23.616550525979314                       23.616550525979314               0                             0                           0                     0.79424093962018649  0.53512480047237709  0.26855483543759789        0                                0                         
                    1.0965334331390498e-17                      2                                      32388.074395495001             -2.0161232064360857e-05           -6.2224222875423264e-21           5.3284519139985845e-19         1.043248913999064e-17             23.610901588373775                     23.616550525979314                       23.616550525979314               1                             1                           0                     0.79424255726458914  0.53512639551001406  0.26855542716188563        3.0868270186563807e-16              3.0868270186563807e-16       
                    1.0957562615815065e-17                      3                                      32378.510104381603             -2.0145684299850889e-05           -7.7717155754329212e-21           5.323271126945442e-19         1.0425235503120521e-17             23.603841661250158                     23.616550525979314                       23.616550525979314               2                             2                           0                     0.79424457741203291  0.53512838801185714  0.26855616622636891        3.858533773320476e-16              6.9453607919768572e-16       
                    1.0947857824284983e-17                      4                                      32366.553613709624             -2.0126270654661223e-05           -9.7047915300829224e-21           5.3167907713836705e-19         1.0416178747146615e-17             23.595018693968214                     23.616550525979314                       23.616550525979314               3                             3                           0                     0.79424709961781514  0.53513087661725223  0.26855708913463855        4.8231672166505948e-16              1.1768528008627451e-15       
                    1.0935742210573152e-17                      5                                      32351.606233949755             -2.0102036462744751e-05           -1.2115613711831089e-20           5.308683507815449e-19         1.0404873859791606e-17             23.583993011813291                     23.616550525979314                       23.616550525979314               4                             4                           0                     0.79425024772660457  0.53513398421836522  0.26855824133060296        6.0289590208132434e-16              1.7797487029440695e-15       
                    1.0920621679904157e-17                      6                                      32332.919238040195             -2.0071794991089704e-05           -1.5120530668993937e-20           5.2985387963979515e-19         1.0390767800264362e-17             23.570215625401001                     23.616550525979314                       23.616550525979314               5                             5                           0                     0.79425417561013933  0.53513786379610784  0.26855967933000102        7.536198776016555e-16              2.5333685805457251e-15       
                    1.0901758421228203e-17                      7                                      32309.556141791898             -2.0034073097012894e-05           -1.8863258675953999e-20           5.2858413394162615e-19         1.0373174287286577e-17             23.553001235627736                     23.616550525979314                       23.616550525979314               6                             6                           0                     0.79425907415352914  0.53514270558878185  0.26856147332731584        9.4202484700206941e-16              3.4753934275477944e-15       
                    1.087823764808075e-17                      8                                      32280.345431974562             -1.9987045330249927e-05           -2.3520773147454328e-20           5.2699437184297964e-19         1.035124327623777e-17             23.53149467173391                      23.616550525979314                       23.616550525979314               7                             7                           0                     0.79426517970007116  0.53514874585709271  0.26856371036534649        1.1775310587525867e-15              4.6529244863003811e-15       
                    1.0848927494137759e-17                      9                                      32243.821281752076             -1.9928454699064824e-05           -2.9310153942989275e-20           5.2500315504011323e-19         1.0323924339097647e-17             23.504629217642758                     23.616550525979314                       23.616550525979314               8                             8                           0                     0.79427278416161251  0.53515627753739692  0.2685664981594319         1.4719138234407334e-15              6.1248383097411146e-15       
                    1.0812431148295388e-17                      10                                     32198.149135025771             -1.9855518465662173e-05           -3.6496345842371458e-20           5.2250789511034855e-19         1.0289923253185039e-17             23.471074944994175                     23.616550525979314                       23.616550525979314               9                             9                           0                     0.79428224696876826  0.53516566309042279  0.26856996966528585        1.8398922793009166e-15              7.9647305890420312e-15       
                    1.0767030504729671e-17                      11                                     32141.032193330168             -1.9764817821562352e-05           -4.5400643565718456e-20           5.1937913668409272e-19         1.0247651368045577e-17             23.429174773587018                     23.616550525979314                       23.616550525979314               10                            10                          0                     0.7942940089507633   0.53517734984207155  0.26857428846222131        2.2998653491261457e-15              1.0264595938168176e-14       
# Table End
