# ODT 1.0
# Table Start
# Title: mmArchive Data Table, Wed Jun 16 18:46:54 EDT 2010
# Columns: {Oxs_EulerEvolve:evolve:Total energy} {Oxs_EulerEvolve:evolve:Energy calc count} {Oxs_EulerEvolve:evolve:Max dm/dt} Oxs_EulerEvolve:evolve:dE/dt {Oxs_EulerEvolve:evolve:Delta E} Oxs_CubicAnisotropy::Energy Oxs_UniformExchange::Energy {Oxs_UniformExchange::Max Spin Ang} {Oxs_UniformExchange::Stage Max Spin Ang} {Oxs_UniformExchange::Run Max Spin Ang} Oxs_TimeDriver::Iteration {Oxs_TimeDriver::Stage iteration} Oxs_TimeDriver::Stage Oxs_TimeDriver::mx   Oxs_TimeDriver::my   Oxs_TimeDriver::mz   {Oxs_TimeDriver::Last time step} {Oxs_TimeDriver::Simulation time}
# Units:                     J                                       {}                                   deg/ns                           J/s                             J                              J                           J                              deg                                    deg                                      deg                              {}                            {}                          {}                   {}                   {}                   {}                          s                                 s                
                    1.6485517944937302e-18                      1                                      20273.027272318162             -2.722175386990175e-06            0                            -1.7832600478546809e-19         1.8268777992791982e-18             23.81470529609118                      23.81470529609118                        23.81470529609118                0                             0                           0                     0.79503791808771862  0.53330014856047514  0.26922685862777346        0                                0                         
                    1.6472102445888019e-18                      2                                      20266.733632852283             -2.7202274146847376e-06           -1.3415499049282158e-21          -1.7844170639152956e-19         1.8256519509803314e-18             23.809255570957419                     23.81470529609118                        23.81470529609118                1                             1                           0                     0.79504035328995903  0.53330119457010083  0.26922825466714995        4.9326624315523498e-16              4.9326624315523498e-16       
                    1.6455348841510711e-18                      3                                      20258.870565283094             -2.717794884243265e-06           -1.6753604377308616e-21          -1.7858646716965699e-19         1.8241213513207279e-18             23.802442741640114                     23.81470529609118                        23.81470529609118                2                             2                           0                     0.795043394283664    0.53330249991524525  0.2692299986780517         6.1658280394404365e-16              1.1098490470992786e-15       
                    1.64344314469818e-18                      4                                      20249.04793728287              -2.7147580213544006e-06           -2.0917394528909877e-21          -1.7876762692029908e-19         1.8222107716184792e-18             23.793925654629668                     23.81470529609118                        23.81470529609118                3                             3                           0                     0.79504719082901754  0.53330412821483086  0.26923217707075775        7.7072850493005464e-16              1.8805775520293332e-15       
                    1.6408323102248233e-18                      5                                      20236.779320564998             -2.7109678718543839e-06           -2.6108344733567762e-21          -1.7899440235846117e-19         1.8198267125832844e-18             23.783277656714603                     23.81470529609118                        23.81470529609118                4                             4                           0                     0.79505192918161982  0.5333061583128228   0.26923489753178348        9.6341063116256827e-16              2.8439881831919014e-15       
                    1.6375747559352585e-18                      6                                      20221.458599274698             -2.7062394323608385e-06           -3.2575542895647194e-21          -1.7927837973088847e-19         1.816853135666147e-18             23.769965102145129                     23.81470529609118                        23.81470529609118                5                             5                           0                     0.79505784068943997  0.53330868770570372  0.26923829416068795        1.2042632889532103e-15              4.0482514721451116e-15       
                    1.6335121492310216e-18                      7                                      20202.331101591761             -2.7003432991752819e-06           -4.062606704237006e-21          -1.7963414353747423e-19         1.8131462927684959e-18             23.753320421187734                     23.81470529609118                        23.81470529609118                6                             6                           0                     0.79506521224684445  0.53331183661710668  0.2692425337898085         1.505329111191513e-15              5.553580583336625e-15       
                    1.6284484370169911e-18                      8                                      20178.458082180154             -2.6929955939752698e-06           -5.0637122140304507e-21          -1.800800824711022e-19         1.8085285194880934e-18             23.732508354526484                     23.81470529609118                        23.81470529609118                7                             7                           0                     0.7950743989096144   0.53331575276660725  0.26924782372686079        1.8816613889893911e-15              7.4352419723260157e-15       
                    1.6221414441919139e-18                      9                                      20148.673189686029             -2.6838459336221729e-06           -6.3069928250772872e-21          -1.806394277691744e-19         1.8027808719610883e-18             23.7064835897684                       23.81470529609118                        23.81470529609118                8                             8                           0                     0.795085838964389    0.53332061682984744  0.26925442119004694        2.352076736236739e-15              9.7873187085627539e-15       
                    1.6142929323531281e-18                      10                                     20111.529357648255             -2.672463258191992e-06           -7.8485118387856543e-21          -1.813415987294537e-19         1.7956345310825818e-18             23.673937566060623                     23.81470529609118                        23.81470529609118                9                             9                           0                     0.79510007168774233  0.53332664849304434  0.26926264472644368        2.9400959202959236e-15              1.2727414628858679e-14       
                    1.6045370322652036e-18                      11                                     20065.234375197684             -2.6583194428199491e-06           -9.7559000879245348e-21          -1.8222395748744341e-19         1.7867609897526469e-18             23.633231610258992                     23.81470529609118                        23.81470529609118                10                            10                          0                     0.79511775789002626  0.53333411284013299  0.26927288790680326        3.6751199003699044e-15              1.6402534529228583e-14       
# Table End
