# ODT 1.0
# Table Start
# Title: mmArchive Data Table, Wed Jun 16 18:47:03 EDT 2010
# Columns: {Oxs_EulerEvolve:evolve:Total energy} {Oxs_EulerEvolve:evolve:Energy calc count} {Oxs_EulerEvolve:evolve:Max dm/dt} Oxs_EulerEvolve:evolve:dE/dt {Oxs_EulerEvolve:evolve:Delta E} Oxs_CubicAnisotropy::Energy Oxs_UniformExchange::Energy {Oxs_UniformExchange::Max Spin Ang} {Oxs_UniformExchange::Stage Max Spin Ang} {Oxs_UniformExchange::Run Max Spin Ang} Oxs_TimeDriver::Iteration {Oxs_TimeDriver::Stage iteration} Oxs_TimeDriver::Stage Oxs_TimeDriver::mx   Oxs_TimeDriver::my   Oxs_TimeDriver::mz   {Oxs_TimeDriver::Last time step} {Oxs_TimeDriver::Simulation time}
# Units:                     J                                       {}                                   deg/ns                           J/s                             J                              J                           J                              deg                                    deg                                      deg                              {}                            {}                          {}                   {}                   {}                   {}                          s                                 s                
                    1.6314033578294062e-17                      1                                      32308.060611057805             -3.0961506644616496e-05            0                             3.0333132298334444e-19         1.6010702255310718e-17             23.607201693706042                     23.607201693706042                       23.607201693706042               0                             0                           0                     0.79384167144845108  0.53541883955940528  0.26899688987892817        0                                0                         
                    1.6304457920544728e-17                      2                                      32295.788884435879             -3.0942105565618302e-05           -9.5756577493349561e-21           3.0281011359680521e-19         1.6001647806947923e-17             23.601735759460308                     23.607201693706042                       23.607201693706042               1                             1                           0                     0.79384345980781079  0.53542025410233041  0.2689975545217243         3.0952028103405825e-16              3.0952028103405825e-16       
                    1.6292498208174193e-17                      3                                      32280.455930531636             -3.0917875472046375e-05           -1.1959712370536386e-20           3.0215821117330849e-19         1.5990339997000883e-17             23.59490287986069                      23.607201693706042                       23.607201693706042               2                             2                           0                     0.79384569332530142  0.53542202093964297  0.26899838464906006        3.8690035129257282e-16              6.9642063232663112e-16       
                    1.6277563957873823e-17                      4                                      32261.3002164967               -3.088762103172531e-05           -1.4934250300369406e-20           3.0134272348999452e-19         1.5976221234383826e-17             23.586361058973502                     23.607201693706042                       23.607201693706042               3                             3                           0                     0.79384848220676341  0.53542422739243478  0.26899942125269244        4.8362543911571608e-16              1.1800460714423472e-15       
                    1.6258920161305857e-17                      5                                      32237.371951729958             -3.0849854752394137e-05           -1.8643796567965233e-20           3.0032241286297585e-19         1.5958597748442881e-17             23.575682656019524                     23.607201693706042                       23.607201693706042               4                             4                           0                     0.79385196360267196  0.53542698219068963  0.26900071535983244        6.04531798894645e-16              1.7845778703369922e-15       
                    1.6235652880968347e-17                      6                                      32207.487221440912             -3.0802727664013118e-05           -2.3267280337508024e-20           2.9904554165442137e-19         1.5936607339313928e-17             23.56233289227438                      23.607201693706042                       23.607201693706042               5                             5                           0                     0.79385630800557094  0.53543042059028656  0.26900233042335464        7.5566474861830625e-16              2.5402426189552984e-15       
                    1.6206627203014163e-17                      7                                      32170.171329727949             -3.0743944735875305e-05           -2.9025677954184446e-20           2.9744714152492561e-19         1.5909180061489238e-17             23.545642938793875                     23.607201693706042                       23.607201693706042               6                             6                           0                     0.79386172705880964  0.53543471063865755  0.26900434524364109        9.4458093577288281e-16              3.4848235547281813e-15       
                    1.6170436162356535e-17                      8                                      32123.589036913741             -3.0670662345396733e-05           -3.6191040657629813e-20           2.9544554185628446e-19         1.5874990620500249e-17             23.52477620451889                      23.607201693706042                       23.607201693706042               7                             7                           0                     0.79386848302597157  0.5354400608044213   0.26900685751866854        1.1807261697161036e-15              4.6655497244442849e-15       
                    1.6125339193137638e-17                      9                                      32065.459013949399             -3.0579365055783718e-05           -4.5096969218897778e-20           2.9293794071210931e-19         1.5832401252425527e-17             23.498686084955438                     23.607201693706042                       23.607201693706042               8                             8                           0                     0.79387690017675239  0.53544672920126457  0.2690099881234187         1.4759077121451295e-15              6.1414574365894142e-15       
                    1.6069188728288939e-17                      10                                     31992.949507794863             -3.0465719204348204e-05           -5.6150464848697672e-20           2.8979473108373459e-19         1.5779393997205205e-17             23.466062974609876                     23.607201693706042                       23.607201693706042               9                             9                           0                     0.79388737832358491  0.53545503463458     0.26901388621489486        1.844884640181412e-15              7.9863420767708262e-15       
                    1.5999343881835454e-17                      11                                     31902.551994674108             -3.0324401584921759e-05           -6.984484645348618e-20           2.8585219878412826e-19         1.5713491683051323e-17             23.425267763110742                     23.607201693706042                       23.607201693706042               10                            10                          0                     0.79390040867242018  0.53546536966654956  0.26901873523745251        2.3061058002267647e-15              1.0292447876997591e-14       
# Table End
