# ODT 1.0
# Table Start
# Title: mmArchive Data Table, Wed Jun 16 18:46:56 EDT 2010
# Columns: {Oxs_EulerEvolve:evolve:Total energy} {Oxs_EulerEvolve:evolve:Energy calc count} {Oxs_EulerEvolve:evolve:Max dm/dt} Oxs_EulerEvolve:evolve:dE/dt {Oxs_EulerEvolve:evolve:Delta E} Oxs_CubicAnisotropy::Energy Oxs_UniformExchange::Energy {Oxs_UniformExchange::Max Spin Ang} {Oxs_UniformExchange::Stage Max Spin Ang} {Oxs_UniformExchange::Run Max Spin Ang} Oxs_TimeDriver::Iteration {Oxs_TimeDriver::Stage iteration} Oxs_TimeDriver::Stage Oxs_TimeDriver::mx   Oxs_TimeDriver::my   Oxs_TimeDriver::mz   {Oxs_TimeDriver::Last time step} {Oxs_TimeDriver::Simulation time}
# Units:                     J                                       {}                                   deg/ns                           J/s                             J                              J                           J                              deg                                    deg                                      deg                              {}                            {}                          {}                   {}                   {}                   {}                          s                                 s                
                    5.5923801511863559e-18                      1                                      30409.637814914069             -1.1117129061353146e-05            0                            -5.086308032090892e-19         6.1010109543954451e-18             22.907486115406446                     22.907486115406446                       22.907486115406446               0                             0                           0                     0.79230871233444589  0.53684989160260288  0.27009305471543277        0                                0                         
                    5.5887272223883241e-18                      2                                      30397.917842298513             -1.111020717502688e-05           -3.6529287980317404e-21          -5.0884744977722551e-19         6.0975746721655491e-18             22.903618402565705                     22.907486115406446                       22.907486115406446               1                             1                           0                     0.79231058736274307  0.53685091650659633  0.27009422722184701        3.2884311417532275e-16              3.2884311417532275e-16       
                    5.5841647981971447e-18                      3                                      30383.272460658201             -1.1101562423052184e-05           -4.5624241911795635e-21          -5.0911848489428344e-19         6.0932832830914275e-18             22.89878292614604                      22.907486115406446                       22.907486115406446               2                             2                           0                     0.79231292916724705  0.53685219626250458  0.27009569220994106        4.1105389271915343e-16              7.3989700689447619e-16       
                    5.5784676007013498e-18                      4                                      30364.972895518462             -1.1090768354720171e-05           -5.6971974957941307e-21          -5.0945763296766477e-19         6.0879252336690148e-18             22.892737276860679                     22.907486115406446                       22.907486115406446               3                             3                           0                     0.79231585333061105  0.53685379381247844  0.2700975224382785         5.1381736589894183e-16              1.253714372793418e-15       
                    5.5713552057558727e-18                      5                                      30342.109628075919             -1.1077294294091899e-05           -7.1123949454771514e-21          -5.0988212074809494e-19         6.0812373265039682e-18             22.885178181063225                     22.907486115406446                       22.907486115406446               4                             4                           0                     0.79231950370868953  0.53685578740260687  0.27009980865238792        6.4227170737367731e-16              1.8959860801670951e-15       
                    5.5624789109423706e-18                      6                                      30313.54802372323              -1.106048061522671e-05           -8.8762948135026943e-21          -5.1041359265687813e-19         6.0728925035992488e-18             22.875726138627211                     22.907486115406446                       22.907486115406446               5                             5                           0                     0.79232405915126936  0.53685827416801979  0.27010266396832411        8.0283963421709658e-16              2.698825714384192e-15       
                    5.5514056835398325e-18                      7                                      30277.873325418146             -1.1039508574402027e-05           -1.107322740253785e-20          -5.1107927698287203e-19         6.0624849605227043e-18             22.863906139455338                     22.907486115406446                       22.907486115406446               6                             6                           0                     0.79232974170990589  0.53686137448056304  0.27010622928923722        1.0035495427713707e-15              3.7023752571555625e-15       
                    5.5375986578446173e-18                      8                                      30233.322610215528             -1.1013363743595295e-05           -1.3807025695215216e-20          -5.1191347776069385e-19         6.0495121356053109e-18             22.849123434044714                     22.907486115406446                       22.907486115406446               7                             7                           0                     0.79233682659833859  0.53686523717618151  0.27011067997857119        1.2544369284642133e-15              4.9568121856197762e-15       
                    5.5203936260678763e-18                      9                                      30177.700851321184             -1.0980792068795933e-05           -1.7205031776741348e-20          -5.1295949235884773e-19         6.0333531184267238e-18             22.830633053695045                     22.907486115406446                       22.907486115406446               8                             8                           0                     0.79234565417969038  0.53687004576867536  0.27011623405063351        1.5680461605802668e-15              6.5248583462000432e-15       
                    5.4989709918780515e-18                      10                                     30108.2777394324               -1.0940247664633121e-05           -2.1422634189824561e-20          -5.1427208971631088e-19         6.013243081594362e-18             22.807501413946717                     22.907486115406446                       22.907486115406446               9                             9                           0                     0.79235664423519547  0.53687602572255611  0.27012316217576504        1.9600577007253333e-15              8.4849160469253757e-15       
                    5.4723227706176369e-18                      11                                     30021.661433954239             -1.0889831736239537e-05           -2.6648221260414832e-20          -5.1592073283391501e-19         5.9882435034515513e-18             22.778557864349885                     22.907486115406446                       22.907486115406446               10                            10                          0                     0.7923703126992534   0.53688345278408922  0.27013179982806368        2.4500721259066666e-15              1.0934988172832042e-14       
# Table End
