# ODT 1.0
# Table Start
# Title: mmArchive Data Table, Wed Jun 16 18:47:05 EDT 2010
# Columns: {Oxs_EulerEvolve:evolve:Total energy} {Oxs_EulerEvolve:evolve:Energy calc count} {Oxs_EulerEvolve:evolve:Max dm/dt} Oxs_EulerEvolve:evolve:dE/dt {Oxs_EulerEvolve:evolve:Delta E} Oxs_CubicAnisotropy::Energy Oxs_UniformExchange::Energy {Oxs_UniformExchange::Max Spin Ang} {Oxs_UniformExchange::Stage Max Spin Ang} {Oxs_UniformExchange::Run Max Spin Ang} Oxs_TimeDriver::Iteration {Oxs_TimeDriver::Stage iteration} Oxs_TimeDriver::Stage Oxs_TimeDriver::mx   Oxs_TimeDriver::my   Oxs_TimeDriver::mz   {Oxs_TimeDriver::Last time step} {Oxs_TimeDriver::Simulation time}
# Units:                     J                                       {}                                   deg/ns                           J/s                             J                              J                           J                              deg                                    deg                                      deg                              {}                            {}                          {}                   {}                   {}                   {}                          s                                 s                
                    1.6373770471505359e-17                      1                                      34088.146559022942             -2.9414705341895652e-05            0                             9.6645269683893609e-19         1.5407317774666425e-17             23.832877308341594                     23.832877308341594                       23.832877308341594               0                             0                           0                     0.79470572596431532  0.53407889158553146  0.26927545676101755        0                                0                         
                    1.6365147847088814e-17                      2                                      34078.807720425677             -2.9397405278333242e-05           -8.6226244165477656e-21           9.6598173150434984e-19         1.5399166115584462e-17             23.825893223896529                     23.832877308341594                       23.832877308341594               1                             1                           0                     0.79470750593190187  0.53408004887616078  0.26927600339478253        2.933571053118186e-16              2.933571053118186e-16       
                    1.6354377900574222e-17                      3                                      34067.138438681919             -2.9375797944627348e-05           -1.0769946514590644e-20           9.6539273203505698e-19         1.5388985168539165e-17             23.817167315688913                     23.832877308341594                       23.832877308341594               2                             2                           0                     0.79470972919708793  0.53408149432401775  0.26927668610498651        3.6669638163977325e-16              6.600534869515919e-16       
                    1.634092847680521e-17                      4                                      34052.558502342719             -2.9348816478311326e-05           -1.344942376901208e-20           9.6465602577582849e-19         1.5376272451029382e-17             23.806266485556556                     23.832877308341594                       23.832877308341594               3                             3                           0                     0.79471250563359241  0.53408329931449972  0.26927753858414299        4.5837047704971652e-16              1.1184239640013084e-15       
                    1.632413699983457e-17                      5                                      34034.343996229705             -2.9315132875434505e-05           -1.6791476970641061e-20           9.637344301408098e-19         1.5360402569693759e-17             23.792650683964116                     23.832877308341594                       23.832877308341594               4                             4                           0                     0.79471597205105082  0.53408555271309366  0.26927860276492538        5.7296309631214575e-16              1.6913870603134541e-15       
                    1.630317932905156e-17                      6                                      34011.592133988255             -2.9273095816330282e-05           -2.0957670783010377e-20           9.6258132403722397e-19         1.5340598005014334e-17             23.775646913495702                     23.832877308341594                       23.832877308341594               5                             5                           0                     0.79472029863158955  0.53408836503086377  0.26927993077799178        7.1620387039018212e-16              2.4075909307036363e-15       
                    1.6277031640623944e-17                      7                                      33983.177725144429             -2.9220654674791325e-05           -2.6147688427614073e-20           9.6113820890467791e-19         1.5315893431719266e-17             23.754417147406318                     23.832877308341594                       23.832877308341594               6                             6                           0                     0.79472569681027661  0.53409187351766851  0.2692815873424389         8.9525483798772767e-16              3.3028457686913638e-15       
                    1.6244424036801619e-17                      8                                      33947.699424995277             -2.9155267206123782e-05           -3.2607603822325044e-20           9.5933161636413142e-19         1.5285092420437489e-17             23.727918872277012                     23.832877308341594                       23.832877308341594               7                             7                           0                     0.79473242886936879  0.53409624835245129  0.26928365266570869        1.1190685474846595e-15              4.4219143161760237e-15       
                    1.6203784502726515e-17                      9                                      33903.413587659932             -2.9073788297053231e-05           -4.0639534075103389e-20           9.5706917550259488e-19         1.524671532722392e-17             23.694856768023541                     23.832877308341594                       23.832877308341594               8                             8                           0                     0.79474081953434761  0.53410170010833125  0.26928622593195017        1.3988356843558245e-15              5.8207500005318482e-15       
                    1.6153171853665571e-17                      10                                     33848.15320886972              -2.8972337289536744e-05           -5.0612649060943481e-20           9.5423459366583966e-19         1.5198937259999734e-17             23.653623862671044                     23.832877308341594                       23.832877308341594               9                             9                           0                     0.79475126985621769  0.53410848866278138  0.26928942945153911        1.7485446054447807e-15              7.5692946059766283e-15       
                    1.6090196534688707e-17                      11                                     33779.229147781145             -2.8846141955493917e-05           -6.2975318976865425e-20           9.5068122454102843e-19         1.5139515310147677e-17             23.602230384762713                     23.832877308341594                       23.832877308341594               10                            10                          0                     0.7947642736209326   0.53411693368697666  0.26929341352301117        2.1856807568059759e-15              9.7549753627826041e-15       
# Table End
