# ODT 1.0
# Table Start
# Title: mmArchive Data Table, Wed Jun 16 18:47:11 EDT 2010
# Columns: {Oxs_EulerEvolve:evolve:Total energy} {Oxs_EulerEvolve:evolve:Energy calc count} {Oxs_EulerEvolve:evolve:Max dm/dt} Oxs_EulerEvolve:evolve:dE/dt {Oxs_EulerEvolve:evolve:Delta E} Oxs_CubicAnisotropy::Energy Oxs_UniformExchange::Energy {Oxs_UniformExchange::Max Spin Ang} {Oxs_UniformExchange::Stage Max Spin Ang} {Oxs_UniformExchange::Run Max Spin Ang} Oxs_TimeDriver::Iteration {Oxs_TimeDriver::Stage iteration} Oxs_TimeDriver::Stage Oxs_TimeDriver::mx   Oxs_TimeDriver::my   Oxs_TimeDriver::mz   {Oxs_TimeDriver::Last time step} {Oxs_TimeDriver::Simulation time}
# Units:                     J                                       {}                                   deg/ns                           J/s                             J                              J                           J                              deg                                    deg                                      deg                              {}                            {}                          {}                   {}                   {}                   {}                          s                                 s                
                    1.984643968725249e-20                      1                                      4429.0182395813463             -1.4263959091296208e-09            0                             1.984643968725249e-20         0                               0                                      0                                        0                                0                             0                           0                     0.74801610292441689  0.56886120618289271  0.34186084576317377        0                                0                         
                    1.9843218753705465e-20                      2                                      4430.6768070307244             -1.4274644153588953e-09           -3.2209335470252377e-24           1.9843218753705465e-20         0                               0                                      0                                        0                                1                             1                           0                     0.74812572162798452  0.56878431678020236  0.34174889264412472        2.2578367166411244e-15              2.2578367166411244e-15       
                    1.9839189458137849e-20                      3                                      4432.7491081452554             -1.4288000252498688e-09           -4.0292955676151831e-24           1.9839189458137849e-20         0                               0                                      0                                        0                                2                             2                           0                     0.74826276078780329  0.56868815588503041  0.34160887309070009        2.8222958958014058e-15              5.0801326124425306e-15       
                    1.983414795091561e-20                      4                                      4435.3380606532146             -1.4304694974212262e-09           -5.0415072222387747e-24           1.983414795091561e-20         0                               0                                      0                                        0                                3                             3                           0                     0.748434084271699    0.56856787800828013  0.34143372650859333        3.5278698697517572e-15              8.6080024821942866e-15       
                    1.9827838431207223e-20                      5                                      4438.5720170358818             -1.432556266191976e-09           -6.3095197083890416e-24           1.9827838431207223e-20         0                               0                                      0                                        0                                4                             4                           0                     0.74864827672119971  0.56841741077999974  0.34121460239054696        4.409837337189696e-15              1.3017839819383983e-14       
                    1.9819939603717635e-20                      6                                      4442.6109530647254             -1.4351645986100808e-09           -7.8988274895857135e-24           1.9819939603717635e-20         0                               0                                      0                                        0                                5                             5                           0                     0.74891607633655832  0.56822913953030763  0.34094039888710831        5.5122966714871202e-15              1.8530136490871104e-14       
                    1.9810047437906355e-20                      7                                      4447.65410356744               -1.4384247801602243e-09           -9.8921658112814095e-24           1.9810047437906355e-20         0                               0                                      0                                        0                                6                             6                           0                     0.74925091720822912  0.567993508146721    0.34059717815303198        6.8903708393589005e-15              2.5420507330230006e-14       
                    1.9797653130778853e-20                      8                                      4453.9493470241705             -1.4424995766250453e-09           -1.2394307127500697e-23           1.9797653130778853e-20         0                               0                                      0                                        0                                7                             7                           0                     0.74966960923744419  0.56769851256246695  0.34016742322000842        8.612963549198625e-15              3.4033470879428632e-14       
                    1.9782114802321849e-20                      9                                      4461.8046782951697             -1.4475922723610584e-09           -1.5538328457004747e-23           1.9782114802321849e-20         0                               0                                      0                                        0                                8                             8                           0                     0.7501931909682974   0.56732905581666837  0.33962908981854217        1.0766204436498282e-14              4.4799675315926913e-14       
                    1.9762620933922067e-20                      10                                     4471.6021310271835             -1.4539566425857192e-09           -1.9493868399782482e-23           1.9762620933922067e-20         0                               0                                      0                                        0                                9                             9                           0                     0.75084799980770289  0.56686612354077337  0.33895439098295871        1.3457755545622853e-14              5.8257430861549759e-14       
                    1.9738142829007319e-20                      11                                     4483.814496699858              -1.4619092719406981e-09           -2.4478104914748955e-23           1.9738142829007319e-20         0                               0                                      0                                        0                                10                            10                          0                     0.751667015541577    0.56628572486483331  0.33810823054331129        1.6822194432028567e-14              7.5079625293578327e-14       
# Table End
