# ODT 1.0
# Table Start
# Title: mmArchive Data Table, Wed Jun 16 18:47:14 EDT 2010
# Columns: {Oxs_EulerEvolve:evolve:Total energy} {Oxs_EulerEvolve:evolve:Energy calc count} {Oxs_EulerEvolve:evolve:Max dm/dt} Oxs_EulerEvolve:evolve:dE/dt {Oxs_EulerEvolve:evolve:Delta E} Oxs_CubicAnisotropy::Energy Oxs_UniformExchange::Energy {Oxs_UniformExchange::Max Spin Ang} {Oxs_UniformExchange::Stage Max Spin Ang} {Oxs_UniformExchange::Run Max Spin Ang} Oxs_TimeDriver::Iteration {Oxs_TimeDriver::Stage iteration} Oxs_TimeDriver::Stage Oxs_TimeDriver::mx   Oxs_TimeDriver::my   Oxs_TimeDriver::mz   {Oxs_TimeDriver::Last time step} {Oxs_TimeDriver::Simulation time}
# Units:                     J                                       {}                                   deg/ns                           J/s                             J                              J                           J                              deg                                    deg                                      deg                              {}                            {}                          {}                   {}                   {}                   {}                          s                                 s                
                    2.7166572773040343e-20                      1                                      11833.12331976005              -6.1229210690212056e-08            0                            -2.1509808411721589e-20         4.8676381184761929e-20             18.860788198567775                     18.860788198567775                       18.860788198567775               0                             0                           0                     0.78895682835161907  0.54179495452182957  0.26681001355306466        0                                0                         
                    2.7114912916866698e-20                      2                                      11822.028932811065             -6.1150497112277305e-08           -5.1659856173643983e-23          -2.1512092327580116e-20         4.8627005244446814e-20             18.852916928502335                     18.860788198567775                       18.860788198567775               1                             1                           0                     0.78896282566074594  0.54179349681422873  0.26680958579320646        8.4508542079512262e-16              8.4508542079512262e-16       
                    2.7050447314256497e-20                      3                                      11808.188477020582             -6.1052313995747879e-08           -6.446560261020135e-23          -2.1514952309443901e-20         4.8565399623700395e-20             18.843071435954634                     18.860788198567775                       18.860788198567775               2                             2                           0                     0.78897031559921105  0.54179167095775405  0.26680905306035757        1.0563567759939033e-15              1.9014421967890257e-15       
                    2.697003554798397e-20                      4                                      11790.93091594729              -6.0929910642873279e-08           -8.0411766272524259e-23          -2.1518535261505247e-20         4.8488570809489217e-20             18.830754583913762                     18.860788198567775                       18.860788198567775               3                             3                           0                     0.78897966757246019  0.54178938283458378  0.26680839021585356        1.3204459699923789e-15              3.2218881667814048e-15       
                    2.6869786026125072e-20                      5                                      11769.42615773479              -6.0777413563224518e-08           -1.0024952185890002e-22          -2.1523026463459574e-20         4.8392812489584643e-20             18.815342956983617                     18.860788198567775                       18.860788198567775               4                             4                           0                     0.78899134124175585  0.54178651363942409  0.26680756645589676        1.6505574624904737e-15              4.8724456292718787e-15       
                    2.6744886901678541e-20                      6                                      11742.650181976753             -6.0587581556113514e-08           -1.2489912444653062e-22          -2.1528660116330659e-20         4.8273547018009201e-20             18.796054189531134                     18.860788198567775                       18.860788198567775               5                             5                           0                     0.78900590792347314  0.5417829130678965   0.26680654424198896        2.0631968281130923e-15              6.9356424573849706e-15       
                    2.6589404898279972e-20                      7                                      11709.344192897544             -6.0351519013867834e-08           -1.5548200339857022e-22          -2.1535733083474073e-20         4.8125137981754042e-20             18.771905524384369                     18.860788198567775                       18.860788198567775               6                             6                           0                     0.78902407669636987  0.54177839045310516  0.2668052781572276         2.5789960351413653e-15              9.5146384925263363e-15       
                    2.6396049415617303e-20                      8                                      11667.967840853444             -6.0058347305266342e-08           -1.9335548266266853e-22          -2.1544622962336823e-20         4.7940672377954126e-20             18.741661089045234                     18.860788198567775                       18.860788198567775               7                             7                           0                     0.78904672604521031  0.54177270315137771  0.26680371377682377        3.2237450439267067e-15              1.2738383536453043e-14       
                    2.615590136514753e-20                      9                                      11616.64741696792              -5.9694839263912389e-08           -2.4014805046977121e-22          -2.1555812117790213e-20         4.7711713482937746e-20             18.703764584575396                     18.860788198567775                       18.860788198567775               8                             8                           0                     0.78907494189165406  0.54176554120817921  0.26680178672152416        4.0296813049083835e-15              1.6768064841361425e-14       
                    2.5858110045853772e-20                      10                                     11553.121467850608             -5.9245030637414026e-08           -2.9779131929375968e-22          -2.1569920067229872e-20         4.7428030113083643e-20             18.65625301660155                      18.860788198567775                       18.860788198567775               9                             9                           0                     0.78911006279821838  0.5417565069526904   0.26679942219372321        5.0371016311354787e-15              2.1805166472496904e-14       
                    2.5489567923913671e-20                      11                                     11474.688906999458             -5.8689836600102017e-08           -3.6854212194010094e-22          -2.1587747797225193e-20         4.7077315721138861e-20             18.596645662336499                     18.860788198567775                       18.860788198567775               10                            10                          0                     0.78915373291345969  0.54174508762854756  0.26679653550563787        6.2963770389193486e-15              2.8101543511416254e-14       
# Table End
