# ODT 1.0
# Table Start
# Title: mmArchive Data Table, Wed Jun 16 18:46:55 EDT 2010
# Columns: {Oxs_EulerEvolve:evolve:Total energy} {Oxs_EulerEvolve:evolve:Energy calc count} {Oxs_EulerEvolve:evolve:Max dm/dt} Oxs_EulerEvolve:evolve:dE/dt {Oxs_EulerEvolve:evolve:Delta E} Oxs_CubicAnisotropy::Energy Oxs_UniformExchange::Energy {Oxs_UniformExchange::Max Spin Ang} {Oxs_UniformExchange::Stage Max Spin Ang} {Oxs_UniformExchange::Run Max Spin Ang} Oxs_TimeDriver::Iteration {Oxs_TimeDriver::Stage iteration} Oxs_TimeDriver::Stage Oxs_TimeDriver::mx   Oxs_TimeDriver::my   Oxs_TimeDriver::mz   {Oxs_TimeDriver::Last time step} {Oxs_TimeDriver::Simulation time}
# Units:                     J                                       {}                                   deg/ns                           J/s                             J                              J                           J                              deg                                    deg                                      deg                              {}                            {}                          {}                   {}                   {}                   {}                          s                                 s                
                    4.0937534609241819e-18                      1                                      32016.999248547279             -6.5559635233402958e-06            0                             2.65965329590962e-19         3.8277881313332199e-18             21.847422672350863                     21.847422672350863                       21.847422672350863               0                             0                           0                     0.79519853034700616  0.53249481336726667  0.27047944291912862        0                                0                         
                    4.0917072617550046e-18                      2                                      32008.446446184949             -6.5522887259717437e-06           -2.0461991691770326e-21           2.6582631409156051e-19         3.8258809476634445e-18             21.843262834144443                     21.847422672350863                       21.847422672350863               1                             1                           0                     0.7952002374286421   0.53249587831326717  0.27047983531069097        3.1233407985458645e-16              3.1233407985458645e-16       
                    4.0891513997555216e-18                      3                                      31997.758630829871             -6.547698963591083e-06           -2.5558619994830728e-21           2.6565243979711724e-19         3.8234989599584044e-18             21.838063000614078                     21.847422672350863                       21.847422672350863               2                             2                           0                     0.79520236975200109  0.53249720846337134  0.27048032525760146        3.9041759981823307e-16              7.0275167967281947e-16       
                    4.0859595178374572e-18                      4                                      31984.403841437736             -6.5419675897704411e-06           -3.1918819180647713e-21           2.6543493313048157e-19         3.8205245847069751e-18             21.831563153215829                     21.847422672350863                       21.847422672350863               3                             3                           0                     0.79520503276970678  0.53249886953914605  0.27048093684423058        4.8802199977279132e-16              1.1907736794456108e-15       
                    4.0819742624543166e-18                      5                                      31967.718134035433             -6.5348124693600143e-06           -3.9852553831403655e-21           2.6516279413379158e-19         3.8168114683205249e-18             21.823438258071299                     21.847422672350863                       21.847422672350863               4                             4                           0                     0.7952083578169995   0.53250094336780629  0.2704817000054579         6.100274997159891e-16              1.8008011791616e-15       
                    4.0769998654187171e-18                      6                                      31946.873151866068             -6.5258827608749814e-06           -4.9743970355997632e-21           2.6482222144485561e-19         3.8121776439738612e-18             21.813282006488187                     21.847422672350863                       21.847422672350863               5                             5                           0                     0.79521250831396595  0.53250353172710063  0.27048265189399118        7.6253437464498645e-16              2.5633355538065863e-15       
                    4.0707930549285577e-18                      7                                      31920.835905662265             -6.5147427577616135e-06           -6.2068104901591739e-21           2.6439588327208203e-19         3.8063971716564757e-18             21.800586487790227                     21.847422672350863                       21.847422672350863               6                             6                           0                     0.7952176873691188   0.53250676105039285  0.27048383853651636        9.5316796830623304e-16              3.5165035221128196e-15       
                    4.0630519792021706e-18                      8                                      31888.318994542195             -6.5008522529644672e-06           -7.741075726387292e-21           2.6386199021921804e-19         3.799189988982952e-18             21.784716776286519                     21.847422672350863                       21.847422672350863               7                             7                           0                     0.7952241470524225   0.5325107881511868   0.27048531682165428        1.1914599603827912e-15              4.7079634824956106e-15       
                    4.0534028017086939e-18                      9                                      31847.719155096485             -6.48354286528123e-06           -9.6491774934761673e-21           2.6319311170602701e-19         3.7902096900026672e-18             21.764879159289393                     21.847422672350863                       21.847422672350863               8                             8                           0                     0.79523219962821157  0.5325158071357291   0.2704871568575466         1.4893249504784891e-15              6.1972884329740999e-15       
                    4.04138362525777e-18                      10                                     31797.04165288942              -6.4619897902075618e-06           -1.20191764509242e-20           2.6235465847790067e-19         3.7790289667798695e-18             21.740081414537912                     21.847422672350863                       21.847422672350863               9                             9                           0                     0.79524223104274916  0.53252205766785399  0.27048944472202363        1.8616561880981114e-15              8.0589446210722118e-15       
                    4.0264254432056667e-18                      11                                     31733.807649744478             -6.4351785529446949e-06           -1.4958182052102926e-20           2.6130292719598516e-19         3.7651225160096816e-18             21.709083147642968                     21.847422672350863                       21.847422672350863               10                            10                          0                     0.79525471693100558  0.53252983472015825  0.27049228559702776        2.3270702351226392e-15              1.0386014856194851e-14       
# Table End
