# ODT 1.0
# Table Start
# Title: mmArchive Data Table, Wed Jun 16 18:47:08 EDT 2010
# Columns: {Oxs_EulerEvolve:evolve:Total energy} {Oxs_EulerEvolve:evolve:Energy calc count} {Oxs_EulerEvolve:evolve:Max dm/dt} Oxs_EulerEvolve:evolve:dE/dt {Oxs_EulerEvolve:evolve:Delta E} Oxs_CubicAnisotropy::Energy Oxs_UniformExchange::Energy {Oxs_UniformExchange::Max Spin Ang} {Oxs_UniformExchange::Stage Max Spin Ang} {Oxs_UniformExchange::Run Max Spin Ang} Oxs_TimeDriver::Iteration {Oxs_TimeDriver::Stage iteration} Oxs_TimeDriver::Stage Oxs_TimeDriver::mx   Oxs_TimeDriver::my   Oxs_TimeDriver::mz   {Oxs_TimeDriver::Last time step} {Oxs_TimeDriver::Simulation time}
# Units:                     J                                       {}                                   deg/ns                           J/s                             J                              J                           J                              deg                                    deg                                      deg                              {}                            {}                          {}                   {}                   {}                   {}                          s                                 s                
                    2.9957401659826513e-17                      1                                      32074.731367815566             -5.7590812879977545e-05            0                             5.4417286158551922e-19         2.9413228798240993e-17             22.995792189961314                     22.995792189961314                       22.995792189961314               0                             0                           0                     0.79501472213323454  0.53431484196122248  0.26841922003953628        0                                0                         
                    2.993946085486031e-17                      2                                      32063.496896760222             -5.7554167178200697e-05           -1.7940804966207548e-20           5.4318270511253247e-19         2.9396278149747774e-17             22.990540051302755                     22.995792189961314                       22.995792189961314               1                             1                           0                     0.79501658346189985  0.5343161632033544   0.26841977818837665        3.1177190185399967e-16              3.1177190185399967e-16       
                    2.9917053612419745e-17                      3                                      32049.459444333042             -5.7508400839454638e-05           -2.240724244056331e-20           5.419443112917149e-19         2.9375109301128028e-17             22.983975031356749                     22.995792189961314                       22.995792189961314               2                             2                           0                     0.79501890813324749  0.53431781342997742  0.2684204752587091         3.8971487731749963e-16              7.014867791714993e-16       
                    2.9889073847224886e-17                      4                                      32031.921438568064             -5.7451256580755804e-05           -2.7979765194856852e-20           5.4039522943810452e-19         2.9348678617786785e-17             22.975768994901145                     22.995792189961314                       22.995792189961314               3                             3                           0                     0.79502181086687151  0.53431987414332238  0.26842134563550174        4.8714359664687455e-16              1.1886303758183738e-15       
                    2.985414484344945e-17                      5                                      32010.012702271943             -5.7379925602321874e-05           -3.4929003775440151e-20           5.3845717740138371e-19         2.9315687666048066e-17             22.965511819663028                     22.995792189961314                       22.995792189961314               4                             4                           0                     0.79502543443733176  0.53432244680464591  0.26842243210656447        6.0892949580859318e-16              1.7975598716269668e-15       
                    2.9810554883083785e-17                      6                                      31982.648309900906             -5.7290916849867697e-05           -4.3589960365665308e-20           5.3603196190264056e-19         2.9274522921181143e-17             22.952690924802244                     22.995792189961314                       22.995792189961314               5                             5                           0                     0.79502995633908813  0.53432565759150019  0.26842378785531767        7.6116186976074143e-16              2.5587217413877085e-15       
                    2.9756178603645662e-17                      7                                      31948.476478141914             -5.7179897552013502e-05           -5.4376279438117428e-20           5.3299631165731903e-19         2.9223182291988347e-17             22.936665694725779                     22.995792189961314                       22.995792189961314               6                             6                           0                     0.79503559692403913  0.53432966321526276  0.26842547889183649        9.5145233720092674e-16              3.5101740785886352e-15       
                    2.9688381517918367e-17                      8                                      31905.814321135309             -5.7041500024434935e-05           -6.7797085727294655e-20           5.2919531477838054e-19         2.9159186203139986e-17             22.916635528568193                     22.995792189961314                       22.995792189961314               7                             7                           0                     0.7950426292733378   0.53433465799302315  0.26842758699879504        1.1893154215011585e-15              4.6994895000897939e-15       
                    2.9603905026048004e-17                      9                                      31852.568942359463             -5.6869089651349652e-05           -8.4476491870366823e-20           5.2443405527577034e-19         2.9079470970772235e-17             22.891599931058007                     22.995792189961314                       22.995792189961314               8                             8                           0                     0.79505139107297085  0.53434088237804966  0.26843021327027095        1.4866442768764481e-15              6.1861337769662416e-15       
                    2.9498729404176735e-17                      10                                     31786.140991330933             -5.6654489464543952e-05           -1.0517562187126727e-19           5.1846691265865698e-19         2.8980262491518082e-17             22.860756892270931                     22.995792189961314                       22.995792189961314               9                             9                           0                     0.79506229874210532  0.53434863314556347  0.26843348231368475        1.8583053460955602e-15              8.0444391230618015e-15       
                    2.9367912866340456e-17                      11                                     31703.307548426357             -5.6387658287469485e-05           -1.308165378362798e-19           5.1098381054541445e-19         2.885692905579504e-17             22.833268541296778                     22.995792189961314                       22.995792189961314               10                            10                          0                     0.79507586399231633  0.53435827539097758  0.26843754716153823        2.3228816826194502e-15              1.0367320805681252e-14       
# Table End
