# ODT 1.0
# Table Start
# Title: mmArchive Data Table, Wed Jun 16 18:47:02 EDT 2010
# Columns: {Oxs_EulerEvolve:evolve:Total energy} {Oxs_EulerEvolve:evolve:Energy calc count} {Oxs_EulerEvolve:evolve:Max dm/dt} Oxs_EulerEvolve:evolve:dE/dt {Oxs_EulerEvolve:evolve:Delta E} Oxs_CubicAnisotropy::Energy Oxs_UniformExchange::Energy {Oxs_UniformExchange::Max Spin Ang} {Oxs_UniformExchange::Stage Max Spin Ang} {Oxs_UniformExchange::Run Max Spin Ang} Oxs_TimeDriver::Iteration {Oxs_TimeDriver::Stage iteration} Oxs_TimeDriver::Stage Oxs_TimeDriver::mx   Oxs_TimeDriver::my   Oxs_TimeDriver::mz   {Oxs_TimeDriver::Last time step} {Oxs_TimeDriver::Simulation time}
# Units:                     J                                       {}                                   deg/ns                           J/s                             J                              J                           J                              deg                                    deg                                      deg                              {}                            {}                          {}                   {}                   {}                   {}                          s                                 s                
                    1.1523288582940345e-17                      1                                      32282.261317625045             -2.2044813451147161e-05            0                             9.3608348040005566e-20         1.1429680234900339e-17             22.777978336937363                     22.777978336937363                       22.777978336937363               0                             0                           0                     0.79411364574002441  0.53558790312587756  0.2678302272497784         0                                0                         
                    1.15164652082921e-17                      2                                      32272.418649218696             -2.203098309823345e-05           -6.8233746482448866e-21           9.3222373513341786e-20         1.1423242834778758e-17             22.776564785126663                     22.777978336937363                       22.777978336937363               1                             1                           0                     0.794115299873143    0.53558945448320561  0.267831001054331          3.097676430287841e-16              3.097676430287841e-16       
                    1.1507943025639073e-17                      3                                      32260.121451395626             -2.2013710320927787e-05           -8.5221826530269772e-21           9.2739737714385268e-20         1.1415203287924688e-17             22.774798133537342                     22.777978336937363                       22.777978336937363               2                             2                           0                     0.79411736557651103  0.53559139236883657  0.26783196769360423        3.8720955378598011e-16              6.9697719681476421e-16       
                    1.1497301279266665e-17                      4                                      32244.759532470191             -2.1992143018387988e-05           -1.0641746372408591e-20           9.2136181471940883e-20         1.1405165097794723e-17             22.772590264467333                     22.777978336937363                       22.777978336937363               3                             3                           0                     0.79411994464144564  0.53559381267936479  0.26783317503041171        4.8401194223247517e-16              1.1809891390472393e-15       
                    1.1484016233601896e-17                      5                                      32225.572076999721             -2.1965220825564666e-05           -1.3285045664768409e-20           9.1381328452926339e-20         1.1392634905148969e-17             22.769831114615428                     22.777978336937363                       22.777978336937363               4                             4                           0                     0.79412316369045688  0.53559683487370002  0.26783468269954608        6.0501492779059392e-16              1.7860040668378332e-15       
                    1.1467436660675145e-17                      6                                      32201.611061524083             -2.1931625703177974e-05           -1.657957292675014e-20           9.0437126816884713e-20         1.1376999533858261e-17             22.76638323143624                      22.777978336937363                       22.777978336937363               5                             5                           0                     0.79412718004086125  0.53560060763377249  0.26783656494258828        7.5626865973824235e-16              2.5422727265760756e-15       
                    1.1446753883042917e-17                      7                                      32171.696116928535             -2.1889721648316011e-05           -2.0682777632228803e-20           8.9255885323172965e-20         1.1357497997719744e-17             22.76207498845163                      22.777978336937363                       22.777978336937363               6                             6                           0                     0.79413218884322756  0.53560531581279647  0.26783891409130817        9.4533582467280303e-16              3.4876085512488786e-15       
                    1.1420965386445471e-17                      8                                      32134.359022865716             -2.1837481614699213e-05           -2.5788496597445262e-20           8.7777793888725174e-20         1.1333187592556746e-17             22.756692131467261                     22.777978336937363                       22.777978336937363               7                             7                           0                     0.79413843170828591  0.53561118892279858  0.26784184482869483        1.1816697808410038e-15              4.6692783320898822e-15       
                    1.1388830972634208e-17                      9                                      32087.775739073011             -2.1772399690331322e-05           -3.2134413811263321e-20           8.5927786590868457e-20         1.130290318604334e-17             22.749967245923809                     22.777978336937363                       22.777978336937363               8                             8                           0                     0.79414620703247951  0.53561851143805861  0.26784549937095425        1.4770872260512546e-15              6.1463655581411374e-15       
                    1.1348820473950376e-17                      10                                     32029.68361645914              -2.1691386756708886e-05           -4.0010498683832048e-20           8.3611562895810894e-20         1.1265208911054566e-17             22.741566630088826                     22.777978336937363                       22.777978336937363               9                             9                           0                     0.7941558821981739   0.5356276352023448   0.26785005372219772        1.8463590325640682e-15              7.9927245907052048e-15       
                    1.1299052273299991e-17                      11                                     31957.281234127677             -2.15906484146553e-05           -4.9768200650386276e-20           8.0710526976311794e-20         1.1218341746323678e-17             22.731073918284661                     22.777978336937363                       22.777978336937363               10                            10                          0                     0.79416790773710411  0.53563899421197769  0.26785572514978911        2.3079487907050852e-15              1.030067338141029e-14       
# Table End
