# ODT 1.0
# Table Start
# Title: mmArchive Data Table, Wed Jun 16 18:47:04 EDT 2010
# Columns: {Oxs_EulerEvolve:evolve:Total energy} {Oxs_EulerEvolve:evolve:Energy calc count} {Oxs_EulerEvolve:evolve:Max dm/dt} Oxs_EulerEvolve:evolve:dE/dt {Oxs_EulerEvolve:evolve:Delta E} Oxs_CubicAnisotropy::Energy Oxs_UniformExchange::Energy {Oxs_UniformExchange::Max Spin Ang} {Oxs_UniformExchange::Stage Max Spin Ang} {Oxs_UniformExchange::Run Max Spin Ang} Oxs_TimeDriver::Iteration {Oxs_TimeDriver::Stage iteration} Oxs_TimeDriver::Stage Oxs_TimeDriver::mx   Oxs_TimeDriver::my   Oxs_TimeDriver::mz   {Oxs_TimeDriver::Last time step} {Oxs_TimeDriver::Simulation time}
# Units:                     J                                       {}                                   deg/ns                           J/s                             J                              J                           J                              deg                                    deg                                      deg                              {}                            {}                          {}                   {}                   {}                   {}                          s                                 s                
                    7.850304231530135e-18                      1                                      29691.184399898622             -1.3899933521983526e-05            0                             5.0005327352982033e-19         7.3502509580003145e-18             23.832877308341594                     23.832877308341594                       23.832877308341594               0                             0                           0                     0.79403137612560648  0.53451889903926741  0.26954572146864975        0                                0                         
                    7.8456265852343911e-18                      2                                      29678.258395443198             -1.3890851611171889e-05           -4.6776462957436103e-21           4.9982343656185607e-19         7.3458031486725348e-18             23.825367944878597                     23.832877308341594                       23.832877308341594               1                             1                           0                     0.79403339206140344  0.53452054098802748  0.26954614723410897        3.3680030629004289e-16              3.3680030629004289e-16       
                    7.8397845515497424e-18                      3                                      29662.105787845416             -1.3879509583569888e-05           -5.8420336846494232e-21           4.9953589372470042e-19         7.3402486578250415e-18             23.815985657413759                     23.832877308341594                       23.832877308341594               2                             2                           0                     0.79403590978120109  0.53452259177761841  0.26954667864241161        4.2100038286255364e-16              7.5780068915259653e-16       
                    7.8324898513567261e-18                      4                                      29641.922689972969             -1.3865348220535142e-05           -7.2947001930159845e-21           4.9917608024441114e-19         7.3333137711123152e-18             23.804264695087568                     23.832877308341594                       23.832877308341594               3                             3                           0                     0.79403905349698878  0.53452515269452094  0.26954734165642946        5.2625047857819205e-16              1.2840511677307886e-15       
                    7.8233837127646414e-18                      5                                      29616.70580558608              -1.384767175060258e-05           -9.1061385920839722e-21           4.987257127571019e-19         7.3246580000075401e-18             23.7896242602611                       23.832877308341594                       23.832877308341594               4                             4                           0                     0.79404297778291233  0.5345283498294745   0.26954816847910701        6.5781309822274003e-16              1.9418642659535285e-15       
                    7.8120201274255055e-18                      6                                      29585.203463771966             -1.382561552467434e-05           -1.1363585339135891e-20           4.981618165076249e-19         7.3138583109178806e-18             23.771340525268862                     23.832877308341594                       23.832877308341594               5                             5                           0                     0.79404787478033834  0.53453233998964855  0.26954919897369262        8.2226637277842502e-16              2.7641306387319535e-15       
                    7.7978454084850864e-18                      7                                      29545.854918059555             -1.3798106615101243e-05           -1.4174718940420178e-20           4.9745548543687822e-19         7.3003899230482075e-18             23.748512087463808                     23.832877308341594                       23.832877308341594               6                             6                           0                     0.79405398299031749  0.534537317928369    0.26955048236153689        1.0278329659730314e-15              3.7919636047049853e-15       
                    7.7801733930643956e-18                      8                                      29496.715267933403             -1.3763816120873444e-05           -1.7672015420689787e-20           4.9657029527475247e-19         7.2836030977896433e-18             23.72001746270691                      23.832877308341594                       23.832877308341594               7                             7                           0                     0.79406159793279041  0.53454352513341419  0.26955207922433827        1.2847912074662891e-15              5.0767548121712744e-15       
                    7.7581556119845496e-18                      9                                      29435.362870349985             -1.3721101953480324e-05           -2.2017781079846338e-20           4.9546026274033785e-19         7.2626953492442119e-18             23.68446299937354                      23.832877308341594                       23.832877308341594               8                             8                           0                     0.79407108495825796  0.53455126042723955  0.26955406382154184        1.6059890093328614e-15              6.6827438215041356e-15       
                    7.7307457993348206e-18                      10                                     29358.785598099981             -1.3667941022952437e-05           -2.7409812649729457e-20           4.940672065284406e-19         7.2366785928063792e-18             23.640119393234176                     23.832877308341594                       23.832877308341594               9                             9                           0                     0.79408289447236002  0.53456089262263784  0.26955652670144653        2.0074862616660767e-15              8.6902300831702127e-15       
                    7.6966582887188933e-18                      11                                     29263.24182810893              -1.3601850154747586e-05           -3.4087510615927216e-20           4.9231731356628023e-19         7.2043409751526128e-18             23.584844839022388                     23.832877308341594                       23.832877308341594               10                            10                          0                     0.7940975797525579   0.53457287542709953  0.26955957752664111        2.5093578270825962e-15              1.1199587910252808e-14       
# Table End
