# ODT 1.0
# Table Start
# Title: mmArchive Data Table, Wed Jun 16 18:47:06 EDT 2010
# Columns: {Oxs_EulerEvolve:evolve:Total energy} {Oxs_EulerEvolve:evolve:Energy calc count} {Oxs_EulerEvolve:evolve:Max dm/dt} Oxs_EulerEvolve:evolve:dE/dt {Oxs_EulerEvolve:evolve:Delta E} Oxs_CubicAnisotropy::Energy Oxs_UniformExchange::Energy {Oxs_UniformExchange::Max Spin Ang} {Oxs_UniformExchange::Stage Max Spin Ang} {Oxs_UniformExchange::Run Max Spin Ang} Oxs_TimeDriver::Iteration {Oxs_TimeDriver::Stage iteration} Oxs_TimeDriver::Stage Oxs_TimeDriver::mx   Oxs_TimeDriver::my   Oxs_TimeDriver::mz   {Oxs_TimeDriver::Last time step} {Oxs_TimeDriver::Simulation time}
# Units:                     J                                       {}                                   deg/ns                           J/s                             J                              J                           J                              deg                                    deg                                      deg                              {}                            {}                          {}                   {}                   {}                   {}                          s                                 s                
                    2.0467542739877303e-17                      1                                      30964.968990850757             -3.8099968763546185e-05            0                             6.4694338333663555e-19         1.9820599356540668e-17             23.832877308341594                     23.832877308341594                       23.832877308341594               0                             0                           0                     0.79515334665837745  0.53386495944885914  0.26865894968103821        0                                0                         
                    2.0455248649460771e-17                      2                                      30954.940556695819             -3.8075149253966273e-05           -1.2294090416533411e-20           6.4638591819584181e-19         1.9808862731264928e-17             23.826755525639172                     23.832877308341594                       23.832877308341594               1                             1                           0                     0.79515549064346702  0.533866028750836    0.26865940721812015        3.2294558418433124e-16              3.2294558418433124e-16       
                    2.0439894209098826e-17                      3                                      30942.408498430384             -3.8044153172943083e-05           -1.5354440361943045e-20           6.4568854145419143e-19         1.9794205667644635e-17             23.819105530622494                     23.832877308341594                       23.832877308341594               2                             2                           0                     0.79515816857531452  0.5338673639668472   0.2686599784029236         4.0368198023041407e-16              7.2662756441474536e-16       
                    2.0420721718939213e-17                      4                                      30926.74886552653              -3.8005452251272191e-05           -1.9172490159614672e-20           6.4481596924058345e-19         1.9775905749698629e-17             23.809546524476353                     23.832877308341594                       23.832877308341594               3                             3                           0                     0.79516151279085778  0.53386903078369863  0.26866069123414565        5.0460247528801756e-16              1.2312300397027628e-15       
                    2.0396788188809351e-17                      5                                      30907.182815565942             -3.7957145035326897e-05           -2.3933530129861859e-20           6.4372392534102721e-19         1.9753064263468322e-17             23.797603212301752                     23.832877308341594                       23.832877308341594               4                             4                           0                     0.79516568806748111  0.53387111086669803  0.26866158047873717        6.30753094110022e-16              1.861983133812785e-15       
                    2.0366921321529388e-17                      6                                      30882.738503670218             -3.7896868543847226e-05           -2.9866867279961137e-20           6.4235679741410855e-19         1.9724564524115281e-17             23.782682573074233                     23.832877308341594                       23.832877308341594               5                             5                           0                     0.79517089937379581  0.53387370560700653  0.26866268923476366        7.8844136763752745e-16              2.6504245014503123e-15       
                    2.0329665770317479e-17                      7                                      30852.203785110352             -3.7821690583497914e-05           -3.725555121191091e-20           6.4064465409743259e-19         1.9689021116220046e-17             23.764045041994454                     23.832877308341594                       23.832877308341594               6                             6                           0                     0.79517740135864456  0.53387694066865732  0.26866407081322696        9.8555170954690936e-16              3.6359762109972214e-15       
                    2.0283217940075445e-17                      8                                      30814.06762277833              -3.7727979392568984e-05           -4.6447830242034173e-20           6.3849943396119492e-19         1.9644718506114248e-17             23.740768830407788                     23.832877308341594                       23.832877308341594               7                             7                           0                     0.79518550990319325  0.53388097145981439  0.26866579097909687        1.2319396369336366e-15              4.8679158479308585e-15       
                    2.0225347547556452e-17                      9                                      30766.447667155717             -3.7611247259114716e-05           -5.7870392518991111e-20           6.3581005415086703e-19         1.9589537493405586e-17             23.711705856916652                     23.832877308341594                       23.832877308341594               8                             8                           0                     0.79519561608284273  0.53388598964331735  0.26866793058047334        1.5399245461670459e-15              6.407840394097904e-15       
                    2.0153304283843349e-17                      10                                     30707.001001839555             -3.7465965152002693e-05           -7.2043263713104101e-20           6.3243609933375514e-19         1.9520868184509595e-17             23.675427485224365                     23.832877308341594                       23.832877308341594               9                             9                           0                     0.79520820288186478  0.53389223076836767  0.26867058856937193        1.9249056827088075e-15              8.3327460768067118e-15       
                    2.0063708376387791e-17                      11                                     30632.814539286024             -3.7285346519677189e-05           -8.9595907455559419e-20           6.281996300661604e-19         1.943550874632163e-17             23.630157972149082                     23.832877308341594                       23.832877308341594               10                            10                          0                     0.79522386495220654  0.53389998303195474  0.26867388536895692        2.4061321033860091e-15              1.0738878180192721e-14       
# Table End
