# ODT 1.0
# Table Start
# Title: mmArchive Data Table, Wed Jun 16 18:46:57 EDT 2010
# Columns: {Oxs_EulerEvolve:evolve:Total energy} {Oxs_EulerEvolve:evolve:Energy calc count} {Oxs_EulerEvolve:evolve:Max dm/dt} Oxs_EulerEvolve:evolve:dE/dt {Oxs_EulerEvolve:evolve:Delta E} Oxs_CubicAnisotropy::Energy Oxs_UniformExchange::Energy {Oxs_UniformExchange::Max Spin Ang} {Oxs_UniformExchange::Stage Max Spin Ang} {Oxs_UniformExchange::Run Max Spin Ang} Oxs_TimeDriver::Iteration {Oxs_TimeDriver::Stage iteration} Oxs_TimeDriver::Stage Oxs_TimeDriver::mx   Oxs_TimeDriver::my   Oxs_TimeDriver::mz   {Oxs_TimeDriver::Last time step} {Oxs_TimeDriver::Simulation time}
# Units:                     J                                       {}                                   deg/ns                           J/s                             J                              J                           J                              deg                                    deg                                      deg                              {}                            {}                          {}                   {}                   {}                   {}                          s                                 s                
                    8.163580493265582e-18                      1                                      30319.83950517968              -1.5959225071257338e-05            0                            -3.843004176408204e-19         8.5478809109064028e-18             23.238131831351275                     23.238131831351275                       23.238131831351275               0                             0                           0                     0.79486053154209402  0.53361318758138188  0.26909444467422144        0                                0                         
                    8.1583212308489917e-18                      2                                      30310.284218505192             -1.5948748176795492e-05           -5.2592624165897931e-21          -3.8455440368697732e-19         8.5428756345359701e-18             23.233737422409206                     23.238131831351275                       23.238131831351275               1                             1                           0                     0.79486249188439728  0.53361457224574071  0.26909491728846985        3.2981704927203373e-16              3.2981704927203373e-16       
                    8.151752830496713e-18                      3                                      30298.347896750864             -1.5935664219824622e-05           -6.568400352278403e-21          -3.8487206730703634e-19         8.5366248978037506e-18             23.22824458395446                      23.238131831351275                       23.238131831351275               2                             2                           0                     0.79486494021591458  0.53361630167104734  0.2690955074142003         4.1227131159004214e-16              7.4208836086207587e-16       
                    8.1435511917714832e-18                      4                                      30283.439651795805             -1.591932825411736e-05           -8.2016387252307649e-21          -3.8526942952410403e-19         8.5288206212955875e-18             23.221378803348941                     23.238131831351275                       23.238131831351275               3                             3                           0                     0.79486799735795022  0.53361846125923751  0.26909624406931115        5.1533913948755267e-16              1.2574275003496285e-15       
                    8.133312970987401e-18                      5                                      30264.823323089728             -1.5898937912626327e-05           -1.0238220784082562e-20          -3.8576657357581559e-19         8.5190795445632159e-18             23.212796990795095                     23.238131831351275                       23.238131831351275               4                             4                           0                     0.7948718136786822   0.53362115732129933  0.2690971633248303         6.4417392435944086e-16              1.9016014247090694e-15       
                    8.1205367639934567e-18                      6                                      30241.582528946947             -1.5873496179476119e-05           -1.2776206993943052e-20          -3.8638869230882651e-19         8.5069254563022839e-18             23.20207036156615                      23.238131831351275                       23.238131831351275               5                             5                           0                     0.7948765761123936   0.53362452205811894  0.26909830995602335        8.0521740544930102e-16              2.7068188301583704e-15       
                    8.1046001353076619e-18                      7                                      30212.57774281369              -1.5841766033352124e-05           -1.5936628685794824e-20          -3.8716741514289733e-19         8.4917675504505602e-18             23.188663051671121                     23.238131831351275                       23.238131831351275               6                             6                           0                     0.79488251672954413  0.53362871964971625  0.26909973944420723        1.0065217568116263e-15              3.7133405869699967e-15       
                    8.0847317571483071e-18                      8                                      30176.393821650479             -1.580221557584053e-05           -1.9868378159354848e-20          -3.881424942838271e-19         8.472874251432135e-18             23.171905405644818                     23.238131831351275                       23.238131831351275               7                             7                           0                     0.79488992313324924  0.53363395365469757  0.26910152038300195        1.2581521960145329e-15              4.9714927829845292e-15       
                    8.0599779003310625e-18                      9                                      30131.276249591516             -1.5752952258752365e-05           -2.4753856817245563e-20          -3.8936395511594017e-19         8.4493418554470027e-18             23.150960611056565                     23.238131831351275                       23.238131831351275               8                             8                           0                     0.79489915096598818  0.53364047593145614  0.26910373733800658        1.5726902450181662e-15              6.5441830280026957e-15       
                    8.0291625766283146e-18                      10                                     30075.054276737836             -1.5691645005253221e-05           -3.0815323702747753e-20          -3.9089485010172436e-19         8.4200574267300386e-18             23.1247830232825                       23.238131831351275                       23.238131831351275               9                             9                           0                     0.79491063878884505  0.53364859728334868  0.26910649419358801        1.9658628062727074e-15              8.5100458342754031e-15       
                    7.9908408301124014e-18                      11                                     30005.049211837628             -1.5615433513262738e-05           -3.8321746515913262e-20          -3.928148027779374e-19         8.3836556328903391e-18             23.092066107394988                     23.238131831351275                       23.238131831351275               10                            10                          0                     0.79492492552106375  0.53365869998632398  0.26910991798750161        2.4573285078408845e-15              1.0967374342116287e-14       
# Table End
