# ODT 1.0
# Table Start
# Title: mmArchive Data Table, Wed Jun 16 18:47:09 EDT 2010
# Columns: {Oxs_EulerEvolve:evolve:Total energy} {Oxs_EulerEvolve:evolve:Energy calc count} {Oxs_EulerEvolve:evolve:Max dm/dt} Oxs_EulerEvolve:evolve:dE/dt {Oxs_EulerEvolve:evolve:Delta E} Oxs_CubicAnisotropy::Energy Oxs_UniformExchange::Energy {Oxs_UniformExchange::Max Spin Ang} {Oxs_UniformExchange::Stage Max Spin Ang} {Oxs_UniformExchange::Run Max Spin Ang} Oxs_TimeDriver::Iteration {Oxs_TimeDriver::Stage iteration} Oxs_TimeDriver::Stage Oxs_TimeDriver::mx   Oxs_TimeDriver::my   Oxs_TimeDriver::mz   {Oxs_TimeDriver::Last time step} {Oxs_TimeDriver::Simulation time}
# Units:                     J                                       {}                                   deg/ns                           J/s                             J                              J                           J                              deg                                    deg                                      deg                              {}                            {}                          {}                   {}                   {}                   {}                          s                                 s                
                    3.5972859605283609e-17                      1                                      36435.707708237904             -6.8243445702320757e-05            0                             1.3245900239241197e-18         3.4648269581359489e-17             23.520791441085514                     23.520791441085514                       23.520791441085514               0                             0                           0                     0.79527087153015352  0.53409835707818332  0.26802340946383862        0                                0                         
                    3.5954143024827506e-17                      2                                      36424.677314749482             -6.8205135764274187e-05           -1.8716580456101136e-20           1.3237474423758246e-18         3.4630395582451682e-17             23.514446280573502                     23.520791441085514                       23.520791441085514               1                             1                           0                     0.79527242902011785  0.53409959653220807  0.26802413493807031        2.7445603856732713e-16              2.7445603856732713e-16       
                    3.593076456906741e-17                      3                                      36410.891227717992             -6.8157285758488518e-05           -2.3378455760093945e-20           1.32269333849695e-18         3.460807123057046e-17             23.506518287020487                     23.520791441085514                       23.520791441085514               2                             2                           0                     0.79527437431554726  0.53410114476995729  0.26802504126828719        3.430700482091589e-16              6.1752608677648608e-16       
                    3.5901568458741543e-17                      4                                      36393.661601451298             -6.809753166040847e-05           -2.9196110325867843e-20           1.3213743396132994e-18         3.4580194119128246e-17             23.496613696324772                     23.520791441085514                       23.520791441085514               3                             3                           0                     0.79527680348843743  0.53410307838140081  0.26802617338080653        4.2883756026144865e-16              1.0463636470379346e-15       
                    3.5865115396658938e-17                      5                                      36372.12924097565              -6.8022930195671744e-05           -3.6453062082606893e-20           1.3197234542144234e-18         3.4545391942444513e-17             23.484241396516989                     23.520791441085514                       23.520791441085514               4                             4                           0                     0.79527983613611786  0.53410549276449371  0.26802758727231779        5.3604695032681083e-16              1.5824105973647456e-15       
                    3.5819614718523567e-17                      6                                      36345.221114709573             -6.7929820591311108e-05           -4.5500678135372835e-20           1.3176565132626298e-18         3.4501958205260932e-17             23.468789205282366                     23.520791441085514                       23.520791441085514               5                             5                           0                     0.79528362098734184  0.53410850663748033  0.26802935268737754        6.7005868790851352e-16              2.2524692852732589e-15       
                    3.5762841264849019e-17                      7                                      36311.597447583546             -6.7813655410079869e-05           -5.6773453674542278e-20           1.3150676362456232e-18         3.4447773628603401e-17             23.449494562121892                     23.520791441085514                       23.520791441085514               6                             6                           0                     0.79528834275686133  0.53411226757378516  0.26803155641515042        8.375733598856419e-16              3.090042645158901e-15       
                    3.5692034081124597e-17                      8                                      36269.585908657617             -6.7668794744977974e-05           -7.0807183724422474e-20           1.3118234310017516e-18         3.438021065012285e-17             23.425408432643898                     23.520791441085514                       23.520791441085514               7                             7                           0                     0.79529423047621139  0.53411695875695098  0.26803430633253184        1.0469666998570524e-15              4.137009345015953e-15       
                    3.5603773832703389e-17                      9                                      36217.099857634486             -6.7488257707235721e-05           -8.8260248421210944e-20           1.3077555380174334e-18         3.4296018294685953e-17             23.395351030524203                     23.520791441085514                       23.520791441085514               8                             8                           0                     0.79530156753948422  0.53412280717080041  0.26803773633749772        1.3087083748213155e-15              5.4457177198372683e-15       
                    3.5493835810034331e-17                      10                                     36151.536972709691             -6.7263425283648436e-05           -1.0993802266905877e-19           1.3026509934889906e-18         3.419118481654534e-17             23.357857783513534                     23.520791441085514                       23.520791441085514               9                             9                           0                     0.79531070369237578  0.53413009344536244  0.26804201232939567        1.6358854685266444e-15              7.0816031883639127e-15       
                    3.5357015784010013e-17                      11                                     36069.65385473919              -6.6983689675703881e-05           -1.3682002602431846e-19           1.2962396947021462e-18         3.4060776089307864e-17             23.311113840565287                     23.520791441085514                       23.520791441085514               10                            10                          0                     0.79532206914306935  0.5341391635605276   0.26804733939687808        2.0448568356583053e-15              9.1264600240222183e-15       
# Table End
