# ODT 1.0
# Table Start
# Title: mmArchive Data Table, Wed Jun 16 18:47:10 EDT 2010
# Columns: {Oxs_EulerEvolve:evolve:Total energy} {Oxs_EulerEvolve:evolve:Energy calc count} {Oxs_EulerEvolve:evolve:Max dm/dt} Oxs_EulerEvolve:evolve:dE/dt {Oxs_EulerEvolve:evolve:Delta E} Oxs_CubicAnisotropy::Energy Oxs_UniformExchange::Energy {Oxs_UniformExchange::Max Spin Ang} {Oxs_UniformExchange::Stage Max Spin Ang} {Oxs_UniformExchange::Run Max Spin Ang} Oxs_TimeDriver::Iteration {Oxs_TimeDriver::Stage iteration} Oxs_TimeDriver::Stage Oxs_TimeDriver::mx   Oxs_TimeDriver::my   Oxs_TimeDriver::mz   {Oxs_TimeDriver::Last time step} {Oxs_TimeDriver::Simulation time}
# Units:                     J                                       {}                                   deg/ns                           J/s                             J                              J                           J                              deg                                    deg                                      deg                              {}                            {}                          {}                   {}                   {}                   {}                          s                                 s                
                    5.044942012626396e-17                      1                                      36526.807707859953             -9.9140347146459097e-05            0                             3.0353570915391669e-19         5.0145884417110043e-17             24.949551921938447                     24.949551921938447                       24.949551921938447               0                             0                           0                     0.79542215121752646  0.53393596753850359  0.26778137951727182        0                                0                         
                    5.0422297658712886e-17                      2                                      36517.434818952723             -9.9084286061886854e-05           -2.7122467551072564e-20           3.0216817992495506e-19         5.0120129478787936e-17             24.944614435029937                     24.949551921938447                       24.949551921938447               1                             1                           0                     0.79542394824634288  0.53393699742891498  0.26778187564730405        2.737715291185484e-16              2.737715291185484e-16       
                    5.0388419783843975e-17                      3                                      36505.720694224961             -9.9014264994034268e-05           -3.387787486891009e-20           3.0045775711936637e-19         5.0087962026724614e-17             24.938443665914672                     24.949551921938447                       24.949551921938447               2                             2                           0                     0.7954261929461347   0.53393828372318941  0.26778249525927239        3.4221441139818549e-16              6.1598594051673389e-16       
                    5.0346111793850117e-17                      4                                      36491.081144971955             -9.8926824965582901e-05           -4.230798999385821e-20           2.9831815016078882e-19         5.004779364368933e-17             24.930731906153955                     24.949551921938447                       24.949551921938447               3                             3                           0                     0.79542899634451469  0.53393988992258334  0.26778326891467141        4.277680142477319e-16              1.0437539547644658e-15       
                    5.0293288225405883e-17                      5                                      36472.786568227799             -9.881765962583285e-05           -5.2823568444236565e-20           2.9564117836738581e-19         4.99976470470385e-17             24.921094863805838                     24.949551921938447                       24.949551921938447               4                             4                           0                     0.79543249672731908  0.53394189506771694  0.26778423464223527        5.3471001780966485e-16              1.5784639725741307e-15       
                    5.0227354593747105e-17                      6                                      36449.92595187691              -9.8681413105407222e-05           -6.593363165877844e-20           2.9229112135724923e-19         4.9935063472389856e-17             24.909052710154604                     24.949551921938447                       24.949551921938447               5                             5                           0                     0.79543686617457388  0.53394439743575972  0.26778543970799934        6.6838752226208108e-16              2.2468514948362119e-15       
                    5.0145087017037089e-17                      7                                      36421.362085363013             -9.8511432720453402e-05           -8.226757671001632e-20           2.8809755888640183e-19         4.9856989458150689e-17             24.89400649582144                      24.949551921938447                       24.949551921938447               6                             6                           0                     0.79544231857556691  0.53394751905760529  0.26778694277406218        8.3548440282760133e-16              3.0823358976638131e-15       
                    5.0042485556063712e-17                      8                                      36385.675894804321             -9.8299468202659113e-05           -1.0260146097337581e-19           2.8284626862089392e-19         4.9759639287442822e-17             24.875208838572991                     24.949551921938447                       24.949551921938447               7                             7                           0                     0.79544911940739893  0.53395141120254264  0.26778881651352748        1.0443555035345016e-15              4.126691401198315e-15       
                    4.9914596783589188e-17                      9                                      36341.097369484443             -9.8035308655910637e-05           -1.2788877247452442e-19           2.7626761347227447e-19         4.9638329170116913e-17             24.85172754387526                      24.949551921938447                       24.949551921938447               8                             8                           0                     0.7954575975860676   0.5339562609835834   0.26779115074981158        1.3054443794181271e-15              5.4321357806164419e-15       
                    4.9755301095613242e-17                      10                                     36285.420022768718             -9.7706348691250152e-05           -1.5929568797594703e-19           2.6802166395649486e-19         4.9487279431656749e-17             24.822400535754813                     24.949551921938447                       24.949551921938447               9                             9                           0                     0.79546815970540052  0.5339622992271521   0.26779405618080315        1.6318054742726588e-15              7.0639412548891003e-15       
                    4.9557060853800364e-17                      11                                     36215.895241826453             -9.7297076772250341e-05           -1.982402418128772e-19           2.5767904593249893e-19         4.9299381807867865e-17             24.785780148925024                     24.949551921938447                       24.949551921938447               10                            10                          0                     0.79548130694997943  0.53396980971419261  0.26779766872579969        2.0397568428408234e-15              9.1036980977299237e-15       
# Table End
