# ODT 1.0
# Table Start
# Title: mmArchive Data Table, Wed Jun 16 18:47:05 EDT 2010
# Columns: {Oxs_EulerEvolve:evolve:Total energy} {Oxs_EulerEvolve:evolve:Energy calc count} {Oxs_EulerEvolve:evolve:Max dm/dt} Oxs_EulerEvolve:evolve:dE/dt {Oxs_EulerEvolve:evolve:Delta E} Oxs_CubicAnisotropy::Energy Oxs_UniformExchange::Energy {Oxs_UniformExchange::Max Spin Ang} {Oxs_UniformExchange::Stage Max Spin Ang} {Oxs_UniformExchange::Run Max Spin Ang} Oxs_TimeDriver::Iteration {Oxs_TimeDriver::Stage iteration} Oxs_TimeDriver::Stage Oxs_TimeDriver::mx   Oxs_TimeDriver::my   Oxs_TimeDriver::mz   {Oxs_TimeDriver::Last time step} {Oxs_TimeDriver::Simulation time}
# Units:                     J                                       {}                                   deg/ns                           J/s                             J                              J                           J                              deg                                    deg                                      deg                              {}                            {}                          {}                   {}                   {}                   {}                          s                                 s                
                    1.1651889080117243e-17                      1                                      34858.537026050275             -2.1510233276954024e-05            0                             4.47046786172562e-19         1.1204842293944682e-17             23.832877308341594                     23.832877308341594                       23.832877308341594               0                             0                           0                     0.79482689634087222  0.53387900725666315  0.26883387228664002        0                                0                         
                    1.1645722839206342e-17                      2                                      34848.339572690798             -2.1497902276980223e-05           -6.166240910901455e-21           4.4674241337830743e-19         1.1198980425828034e-17             23.826289453797678                     23.832877308341594                       23.832877308341594               1                             1                           0                     0.79482870958566509  0.53388011830037196  0.26883454362919224        2.8687377191208171e-16              2.8687377191208171e-16       
                    1.163802085585932e-17                      3                                      34835.596942282129             -2.1482500965902156e-05           -7.7019833470218365e-21           4.4636174080980838e-19         1.1191659115049512e-17             23.818058386955155                     23.832877308341594                       23.832877308341594               2                             2                           0                     0.79483097446301343  0.53388150597380069  0.26883538222497172        3.5859221489010213e-16              6.4546598680218385e-16       
                    1.1628402458401902e-17                      4                                      34819.675186882698             -2.1463268744031773e-05           -9.618397457417569e-21           4.4588557754503336e-19         1.1182516880856869e-17             23.807775412733115                     23.832877308341594                       23.832877308341594               3                             3                           0                     0.79483380293911599  0.53388323879958177  0.2688364295604308         4.4824026861262768e-16              1.0937062554148115e-15       
                    1.1616393635052052e-17                      5                                      34799.783183327956             -2.1439258769066629e-05           -1.2008823349850679e-20           4.4528986990363479e-19         1.1171103765148417e-17             23.794930845992816                     23.832877308341594                       23.832877308341594               4                             4                           0                     0.79483733444406357  0.53388540207536606  0.26883773731049415        5.6030033576578455e-16              1.6540065911805961e-15       
                    1.1601404719293119e-17                      6                                      34774.934069665331             -2.1409293576324439e-05           -1.4988915758933186e-20           4.4454444937955074e-19         1.1156860269913568e-17             23.778889427920692                     23.832877308341594                       23.832877308341594               5                             5                           0                     0.79484174244308026  0.53388810186889135  0.26883936978333978        7.0037541970723073e-16              2.3543820108878265e-15       
                    1.1582703063223418e-17                      7                                      34743.897444248971             -2.1371910814690985e-05           -1.8701656069700736e-20           4.4361144728529586e-19         1.1139091615938123e-17             23.758859968099028                     23.832877308341594                       23.832877308341594               6                             6                           0                     0.79484724248675453  0.53389146990134961  0.26884140691945496        8.7546927463403839e-16              3.229851285521865e-15       
                    1.1559379757665108e-17                      8                                      34705.140238371649             -2.1325297292980344e-05           -2.3323305558310387e-20           4.4244328156545111e-19         1.1116936476099657e-17             23.733857975938246                     23.832877308341594                       23.832877308341594               7                             7                           0                     0.7948541020197224   0.53389566948021083  0.26884394795212951        1.094336593292548e-15              4.3241878788144132e-15       
                    1.1530309391354607e-17                      9                                      34656.753768559778             -2.1267209440236629e-05           -2.9070366310502048e-20           4.4098009146379938e-19         1.1089329299890807e-17             23.702659850955865                     23.832877308341594                       23.832877308341594               8                             8                           0                     0.79486265224809549  0.53390090264983836  0.2688471158462466         1.367920741615685e-15              5.6921086204300976e-15       
                    1.1494101847317825e-17                      10                                     34596.364028974298             -2.1194878358705543e-05           -3.6207544036780288e-20           4.3914645522614798e-19         1.1054955392091678e-17             23.663747021660466                     23.832877308341594                       23.832877308341594               9                             9                           0                     0.79487330236603149  0.53390741871965663  0.26885106263528519        1.7099009270196063e-15              7.402009547449704e-15       
                    1.1449045274929295e-17                      11                                     34521.021816109154             -2.1104898025313877e-05           -4.5056572388529916e-20           4.3684717041751478e-19         1.1012198104511781e-17             23.615238295047696                     23.832877308341594                       23.832877308341594               10                            10                          0                     0.79488655640296657  0.53391552429249844  0.26885597576658582        2.1373761587745077e-15              9.5393857062242117e-15       
# Table End
