# ODT 1.0
# Table Start
# Title: mmArchive Data Table, Wed Jun 16 18:47:03 EDT 2010
# Columns: {Oxs_EulerEvolve:evolve:Total energy} {Oxs_EulerEvolve:evolve:Energy calc count} {Oxs_EulerEvolve:evolve:Max dm/dt} Oxs_EulerEvolve:evolve:dE/dt {Oxs_EulerEvolve:evolve:Delta E} Oxs_CubicAnisotropy::Energy Oxs_UniformExchange::Energy {Oxs_UniformExchange::Max Spin Ang} {Oxs_UniformExchange::Stage Max Spin Ang} {Oxs_UniformExchange::Run Max Spin Ang} Oxs_TimeDriver::Iteration {Oxs_TimeDriver::Stage iteration} Oxs_TimeDriver::Stage Oxs_TimeDriver::mx   Oxs_TimeDriver::my   Oxs_TimeDriver::mz   {Oxs_TimeDriver::Last time step} {Oxs_TimeDriver::Simulation time}
# Units:                     J                                       {}                                   deg/ns                           J/s                             J                              J                           J                              deg                                    deg                                      deg                              {}                            {}                          {}                   {}                   {}                   {}                          s                                 s                
                    1.274070724228641e-17                      1                                      35584.400267398298             -2.4661135157214071e-05            0                            -5.0703684764879958e-20         1.279141092705129e-17             24.218708087995687                     24.218708087995687                       24.218708087995687               0                             0                           0                     0.79363817455805474  0.53611029943304223  0.26853996224232496        0                                0                         
                    1.2733781883717459e-17                      2                                      35572.696067897465             -2.4647113922673622e-05           -6.9253585689514613e-21          -5.1123006623141028e-20         1.2784904890340599e-17             24.215166790222547                     24.218708087995687                       24.218708087995687               1                             1                           0                     0.79363984836962487  0.53611134466117549  0.26854070598309077        2.8102201877382198e-16              2.8102201877382198e-16       
                    1.2725131657230535e-17                      3                                      35558.072279153734             -2.4629601328137062e-05           -8.6502264869235183e-21          -5.1647344624445539e-20         1.2776779001854981e-17             24.210739924636805                     24.218708087995687                       24.218708087995687               2                             2                           0                     0.79364193906044866  0.53611265010924725  0.26854163517884078        3.5127752346727744e-16              6.3229954224109942e-16       
                    1.2714328976777098e-17                      4                                      35539.802627257988             -2.4607732359226225e-05           -1.0802680453437267e-20          -5.2303056815035844e-20         1.2766632033592134e-17             24.205205962644509                     24.218708087995687                       24.218708087995687               3                             3                           0                     0.79364454996728639  0.53611428022221619  0.26854279592393215        4.3909690433409681e-16              1.0713964465751963e-15       
                    1.2700841393242542e-17                      5                                      35516.98129779123              -2.4580430130394737e-05           -1.3487583534556563e-20          -5.312314884567052e-20         1.2753964542088213e-17             24.198287916885683                     24.218708087995687                       24.218708087995687               4                             4                           0                     0.79364780976638594  0.53611631521453462  0.26854424568547186        5.4887113041762107e-16              1.6202675769928173e-15       
                    1.2684006513989046e-17                      6                                      35488.479181720162             -2.454635536374021e-05           -1.6834879253495196e-20          -5.4148968157024222e-20         1.273815548214607e-17             24.189639433677883                     24.218708087995687                       24.218708087995687               5                             5                           0                     0.79365187853199937  0.53611885482161292  0.26854605606231496        6.8608891302202631e-16              2.3063564900148437e-15       
                    1.2663001282831749e-17                      7                                      35452.889809728578             -2.4503844596179977e-05           -2.1005231157297421e-20          -5.5432339497574308e-20         1.2718433622329323e-17             24.17882738468106                      24.218708087995687                       24.218708087995687               6                             6                           0                     0.79365695515589418  0.53612202288302147  0.26854831618707842        8.5761114127753286e-16              3.1639676312923763e-15       
                    1.263680455761327e-17                      8                                      35408.462740977346             -2.4450835044723023e-05           -2.6196725218478784e-20          -5.7038261756736415e-20         1.2693842819370006e-17             24.165310069365354                     24.218708087995687                       24.218708087995687               7                             7                           0                     0.79366328638340833  0.53612597290685116  0.26855113690622856        1.0720139265969161e-15              4.2359815578892926e-15       
                    1.2604151844868828e-17                      9                                      35353.021798886803             -2.4384773946908215e-05           -3.2652712744442726e-20          -5.9048321182959596e-20         1.2663200166051787e-17             24.148409910524098                     24.218708087995687                       24.218708087995687               8                             8                           0                     0.79367117773945883  0.53613089477022502  0.26855465589316313        1.3400174082461452e-15              5.5759989661354376e-15       
                    1.2563481053028653e-17                      10                                     35283.865176029198             -2.4302510265758106e-05           -4.0670791840174755e-20          -6.1565022460620671e-20         1.2625046075489273e-17             24.127279234532494                     24.218708087995687                       24.218708087995687               9                             9                           0                     0.79368100661587326  0.53613702270107022  0.26855904386674501        1.6750217603076814e-15              7.2510207264431192e-15       
                    1.2512868276570397e-17                      11                                     35197.644110067937             -2.4200167058334125e-05           -5.0612776458255341e-20          -6.4717300802267508e-20         1.2577585577372664e-17             24.100857359019312                     24.218708087995687                       24.218708087995687               10                            10                          0                     0.79369323775219136  0.5361446446485949   0.26856451209874294        2.0937772003846016e-15              9.3447979268277208e-15       
# Table End
