# ODT 1.0
# Table Start
# Title: mmArchive Data Table, Wed Jun 16 18:46:55 EDT 2010
# Columns: {Oxs_EulerEvolve:evolve:Total energy} {Oxs_EulerEvolve:evolve:Energy calc count} {Oxs_EulerEvolve:evolve:Max dm/dt} Oxs_EulerEvolve:evolve:dE/dt {Oxs_EulerEvolve:evolve:Delta E} Oxs_CubicAnisotropy::Energy Oxs_UniformExchange::Energy {Oxs_UniformExchange::Max Spin Ang} {Oxs_UniformExchange::Stage Max Spin Ang} {Oxs_UniformExchange::Run Max Spin Ang} Oxs_TimeDriver::Iteration {Oxs_TimeDriver::Stage iteration} Oxs_TimeDriver::Stage Oxs_TimeDriver::mx   Oxs_TimeDriver::my   Oxs_TimeDriver::mz   {Oxs_TimeDriver::Last time step} {Oxs_TimeDriver::Simulation time}
# Units:                     J                                       {}                                   deg/ns                           J/s                             J                              J                           J                              deg                                    deg                                      deg                              {}                            {}                          {}                   {}                   {}                   {}                          s                                 s                
                    5.0978178956539742e-18                      1                                      27035.380446837677             -8.7755453316848671e-06            0                             1.0423558214563577e-19         4.993582313508338e-18             23.832877308341594                     23.832877308341594                       23.832877308341594               0                             0                           0                     0.79521361436950211  0.53250076391577994  0.26952676704580097        0                                0                         
                    5.0945747258330345e-18                      2                                      27028.190333184895             -8.7696021766975851e-06           -3.2431698209391054e-21           1.0401007850602697e-19         4.9905646473270077e-18             23.826432544273992                     23.832877308341594                       23.832877308341594               1                             1                           0                     0.7952157007402223   0.53250215400251821  0.26952750742274423        3.6988567701734336e-16              3.6988567701734336e-16       
                    5.0905243765692526e-18                      3                                      27019.210538583633             -8.762180481742346e-06           -4.0503492637820268e-21           1.0372807502163737e-19         4.9867963015476153e-18             23.818380284558717                     23.832877308341594                       23.832877308341594               2                             2                           0                     0.79521830636750057  0.53250388998173559  0.2695284321450116         4.6235709627167919e-16              8.3224277328902251e-16       
                    5.0854670788932076e-18                      4                                      27007.998042256299             -8.7529146759393312e-06           -5.0572976760448848e-21           1.0337537722844754e-19         4.9820917016647602e-18             23.808320730584974                     23.832877308341594                       23.832877308341594               3                             3                           0                     0.7952215597551805   0.53250605741271761  0.26952958687879514        5.7794637033959902e-16              1.4101891436286214e-15       
                    5.0791542550471439e-18                      5                                      26994.001528829929             -8.7413500690840366e-06           -6.3128238460643431e-21           1.0293420315152431e-19         4.9762200518956191e-18             23.795755298257628                     23.832877308341594                       23.832877308341594               4                             4                           0                     0.79522562079961256  0.53250876273300529  0.26953102847157556        7.2243296292449872e-16              2.1326221065531203e-15       
                    5.0712769480568118e-18                      6                                      26976.535685268715             -8.7269218385750084e-06           -7.8773069903320406e-21           1.0238226473958618e-19         4.9688946833172253e-18             23.780062573430609                     23.832877308341594                       23.832877308341594               5                             5                           0                     0.79523068822861687  0.53251213819254517  0.26953282761612524        9.030412036556234e-16              3.0356633102087435e-15       
                    5.0614517085743351e-18                      7                                      26954.749830020715             -8.7089294642323783e-06           -9.8252394824765736e-21           1.0169160764011618e-19         4.9597601009342188e-18             23.760468619938099                     23.832877308341594                       23.832877308341594               6                             6                           0                     0.79523700867326064  0.53251634786304836  0.26953507210760674        1.1288015045695293e-15              4.164464814778273e-15       
                    5.0492034949321402e-18                      8                                      26927.589871294076             -8.6865058566220083e-06           -1.2248213642194538e-20           1.0082714231200728e-19         4.9483763526201328e-18             23.736010430210136                     23.832877308341594                       23.832877308341594               7                             7                           0                     0.79524488765605217  0.5325215949044011   0.26953787080193914        1.4110018807119116e-15              5.5754666954901844e-15       
                    5.0339451342516208e-18                      9                                      26893.752561292742             -8.6585804415893588e-06           -1.5258360680519229e-20           9.9744779179084265e-20         4.9342003550725368e-18             23.705491116846044                     23.832877308341594                       23.832877308341594               8                             8                           0                     0.79525470278283439  0.53252813026847867  0.26954135838894566        1.7637523508898894e-15              7.3392190463800738e-15       
                    5.0149529356836663e-18                      10                                     26851.631087956819             -8.6238355913312724e-06           -1.8992198567955179e-20           9.8389053321830724e-20         4.9165638823618351e-18             23.667425263856959                     23.832877308341594                       23.832877308341594               9                             9                           0                     0.79526691939512362  0.53253626299429413  0.26954570108906017        2.204690438612362e-15              9.543909484992435e-15       
                    4.9913381800867023e-18                      11                                     26799.251303025627             -8.580656109195185e-06           -2.3614755596963502e-20           9.6690087468427476e-20         4.8946480926182751e-18             23.619972722816275                     23.832877308341594                       23.832877308341594               10                            10                          0                     0.7952821088490275   0.53254637217869905  0.26955110335936139        2.7558630482654523e-15              1.2299772533257888e-14       
# Table End
