# ODT 1.0
# Table Start
# Title: mmArchive Data Table, Wed Jun 16 18:46:53 EDT 2010
# Columns: {Oxs_EulerEvolve:evolve:Total energy} {Oxs_EulerEvolve:evolve:Energy calc count} {Oxs_EulerEvolve:evolve:Max dm/dt} Oxs_EulerEvolve:evolve:dE/dt {Oxs_EulerEvolve:evolve:Delta E} Oxs_CubicAnisotropy::Energy Oxs_UniformExchange::Energy {Oxs_UniformExchange::Max Spin Ang} {Oxs_UniformExchange::Stage Max Spin Ang} {Oxs_UniformExchange::Run Max Spin Ang} Oxs_TimeDriver::Iteration {Oxs_TimeDriver::Stage iteration} Oxs_TimeDriver::Stage Oxs_TimeDriver::mx   Oxs_TimeDriver::my   Oxs_TimeDriver::mz   {Oxs_TimeDriver::Last time step} {Oxs_TimeDriver::Simulation time}
# Units:                     J                                       {}                                   deg/ns                           J/s                             J                              J                           J                              deg                                    deg                                      deg                              {}                            {}                          {}                   {}                   {}                   {}                          s                                 s                
                    6.1595069776378492e-19                      1                                      12882.326254832424             -5.5618194629192494e-07            0                             3.0201528686956646e-20         5.8574916907682827e-19             21.750799576498515                     21.750799576498515                       21.750799576498515               0                             0                           0                     0.79551369831779695  0.53276391480453911  0.2697070068530974         0                                0                         
                    6.1551925439259425e-19                      2                                      12878.534019340186             -5.5587634715411183e-07           -4.3144337119067457e-22           3.0081543131608804e-20         5.8543771126098541e-19             21.747027045566789                     21.750799576498515                       21.750799576498515               1                             1                           0                     0.79551544992413381  0.53276444198980111  0.26970832552957608        7.7625731581272415e-16              7.7625731581272415e-16       
                    6.1498033921911385e-19                      3                                      12873.794682544041             -5.554946438873052e-07           -5.3891517348036476e-22           2.9931480740770322e-20         5.8504885847834352e-19             21.742310925959497                     21.750799576498515                       21.750799576498515               2                             2                           0                     0.79551763697553179  0.53276509898246405  0.26970997258378193        9.7032164476590519e-16              1.7465789605786293e-15       
                    6.1430730257256296e-19                      4                                      12867.872010671865             -5.5501797634334488e-07           -6.7303664655094411e-22           2.9743777187475481e-20         5.8456352538508744e-19             21.736415064003925                     21.750799576498515                       21.750799576498515               3                             3                           0                     0.79552036695490669  0.53276591711810117  0.26971202938437533        1.2129020559573814e-15              2.9594810165360107e-15       
                    6.1346695461858037e-19                      5                                      12860.471018926075             -5.5442286224553004e-07           -8.4034795398258017e-22           2.9508951811021617e-20         5.8395800280755878e-19             21.729044123293104                     21.750799576498515                       21.750799576498515               4                             4                           0                     0.79552377344385961  0.53276693494064153  0.26971459723454155        1.5161275699467267e-15              4.4756085864827379e-15       
                    6.1241799858447403e-19                      6                                      12851.223459325014             -5.5368009353649213e-07           -1.0489560341063004e-21           2.9215114450303874e-20         5.832028841341702e-19             21.719828707796083                     21.750799576498515                       21.750799576498515               5                             5                           0                     0.79552802221618923  0.53276819965484479  0.26971780212690277        1.8951594624334086e-15              6.3707680489161465e-15       
                    6.1110911021466706e-19                      7                                      12839.669781845885             -5.5275338563448604e-07           -1.3088883698069596e-21           2.8847341179052859e-20         5.822617690356142e-19             21.708306720043225                     21.750799576498515                       21.750799576498515               6                             6                           0                     0.79553331861521404  0.53276976874737858  0.26972180055905326        2.3689493280417606e-15              8.7397173769579074e-15       
                    6.0947659589608235e-19                      8                                      12825.23674666944              -5.5159773369614819e-07           -1.6325143185847655e-21           2.8386881887375505e-20         5.8108971400870685e-19             21.693899987431397                     21.750799576498515                       21.750799576498515               7                             7                           0                     0.79553991640390098  0.53277171171125848  0.26972678660333888        2.961186660052201e-15              1.1700904037010108e-14       
                    6.0744155632551229e-19                      9                                      12807.20969561524              -5.5015742711486908e-07           -2.035039570570038e-21           2.781015108694681e-20         5.7963140523856545e-19             21.675884933474741                     21.750799576498515                       21.750799576498515               8                             8                           0                     0.79554812825247079  0.53277411173362066  0.26973300043316761        3.7014833250652512e-15              1.5402387362075359e-14       
                    6.0490648160344202e-19                      10                                     12784.698301182754             -5.4836367443933032e-07           -2.5350747220702868e-21           2.7087437662986745e-20         5.7781904394045528e-19             21.653355742413122                     21.750799576498515                       21.750799576498515               9                             9                           0                     0.79555833795996289  0.53277706708221229  0.26974073849708996        4.626854156331564e-15              2.0029241518406922e-14       
                    6.0175121136765796e-19                      11                                     12756.594411855389             -5.4613179891018496e-07           -3.1552702357840442e-21           2.6181247956075989e-20         5.7556996341158192e-19             21.625178042367345                     21.750799576498515                       21.750799576498515               10                            10                          0                     0.79557101436431277  0.53278069172337439  0.269750365484341          5.7835676954144547e-15              2.5812809213821378e-14       
# Table End
