# ODT 1.0
# Table Start
# Title: mmArchive Data Table, Wed Jun 16 18:46:54 EDT 2010
# Columns: {Oxs_EulerEvolve:evolve:Total energy} {Oxs_EulerEvolve:evolve:Energy calc count} {Oxs_EulerEvolve:evolve:Max dm/dt} Oxs_EulerEvolve:evolve:dE/dt {Oxs_EulerEvolve:evolve:Delta E} Oxs_CubicAnisotropy::Energy Oxs_UniformExchange::Energy {Oxs_UniformExchange::Max Spin Ang} {Oxs_UniformExchange::Stage Max Spin Ang} {Oxs_UniformExchange::Run Max Spin Ang} Oxs_TimeDriver::Iteration {Oxs_TimeDriver::Stage iteration} Oxs_TimeDriver::Stage Oxs_TimeDriver::mx   Oxs_TimeDriver::my   Oxs_TimeDriver::mz   {Oxs_TimeDriver::Last time step} {Oxs_TimeDriver::Simulation time}
# Units:                     J                                       {}                                   deg/ns                           J/s                             J                              J                           J                              deg                                    deg                                      deg                              {}                            {}                          {}                   {}                   {}                   {}                          s                                 s                
                    2.6849928362927745e-18                      1                                      35114.978698778956             -4.1322599469569503e-06            0                             1.5667274477113171e-19         2.5283200915216428e-18             23.334397171929474                     23.334397171929474                       23.334397171929474               0                             0                           0                     0.7966850345372759   0.53019975358721472  0.27038331117800085        0                                0                         
                    2.6838167782528413e-18                      2                                      35106.508192151516             -4.1302437106517421e-06           -1.1760580399333177e-21           1.5654845871400455e-19         2.5272683195388366e-18             23.331546610741217                     23.334397171929474                       23.334397171929474               1                             1                           0                     0.79668644734473026  0.53020010229346637  0.27038450146194487        2.8477875740097566e-16              2.8477875740097566e-16       
                    2.6823476483908961e-18                      3                                      35095.921888959019             -4.1277252206575854e-06           -1.4691298619452076e-21           1.5639308080026167e-19         2.5259545675906344e-18             23.3279836282803                       23.334397171929474                       23.334397171929474               2                             2                           0                     0.79668821225746811  0.53020053749783691  0.27038598890292737        3.559734467512196e-16              6.4075220415219532e-16       
                    2.6805127077854218e-18                      4                                      35082.691868683891             -4.1245799267163634e-06           -1.8349406054740015e-21           1.5619882668813592e-19         2.5243138810972859e-18             23.323530241907712                     23.334397171929474                       23.334397171929474               3                             3                           0                     0.79669041668629603  0.5302010804440429   0.27038784755770945        4.4496680843902452e-16              1.0857190125912197e-15       
                    2.6782213291980432e-18                      5                                      35066.158808530556             -4.1206527086590774e-06           -2.2913785873789877e-21           1.5595595961226663e-19         2.5222653695857763e-18             23.317964041834738                     23.334397171929474                       23.334397171929474               4                             4                           0                     0.79669316954974445  0.53020175747329301  0.27039016986679226        5.5620851054878065e-16              1.6419275231400004e-15       
                    2.6753606906169361e-18                      6                                      35045.499457205573             -4.115750551093683e-06           -2.8606385811068558e-21           1.5565229877123716e-19         2.5197083918456991e-18             23.311007122399616                     23.334397171929474                       23.334397171929474               5                             5                           0                     0.79669660645813412  0.53020260117933771  0.27039307117728778        6.9526063818597576e-16              2.3371881613259761e-15       
                    2.6717904842957145e-18                      7                                      35019.686158963021             -4.1096335631398124e-06           -3.5702063212216008e-21           1.5527260289514143e-19         2.5165178814005732e-18             23.302312267125188                     23.334397171929474                       23.334397171929474               6                             6                           0                     0.79670089608630135  0.53020365178585449  0.27039669535570637        8.690757977324697e-16              3.2062639590584458e-15       
                    2.6673364459765125e-18                      8                                      34987.436542204894             -4.1020040267599917e-06           -4.4540383192021438e-21           1.5479779676249469e-19         2.5125386492140178e-18             23.29144571236737                      23.334397171929474                       23.334397171929474               7                             7                           0                     0.79670624797281908  0.53020495876505036  0.27040122174047287        1.0863447471655872e-15              4.2926087062240333e-15       
                    2.6617824878014332e-18                      9                                      34947.151072261287             -4.0924931310336466e-06           -5.5539581750792896e-21           1.5420399985061006e-19         2.5075784879508231e-18             23.277865651555373                     23.334397171929474                       23.334397171929474               8                             8                           0                     0.79671292201065658  0.53020658270105425  0.27040687373395161        1.3579309339569839e-15              5.6505396401810173e-15       
                    2.6548612066033623e-18                      10                                     34896.835681233359             -4.0806450450232767e-06           -6.921281198070828e-21           1.5346130532155152e-19         2.5013999012818108e-18             23.260895441502768                     23.334397171929474                       23.334397171929474               9                             9                           0                     0.79672123991082344  0.53020859737185666  0.27041392938944997        1.6974136674462299e-15              7.3479533076272476e-15       
                    2.6462425465986098e-18                      11                                     34834.00612852956              -4.065898018262175e-06           -8.6186600047526301e-21           1.5253224346951903e-19         2.4937103031290906e-18             23.239690225925496                     23.334397171929474                       23.334397171929474               10                            10                          0                     0.79673159891523049  0.53021109197014049  0.27042273440793863        2.1217670843077875e-15              9.4697203919350343e-15       
# Table End
