# ODT 1.0
# Table Start
# Title: mmArchive Data Table, Wed Jun 16 18:47:12 EDT 2010
# Columns: {Oxs_EulerEvolve:evolve:Total energy} {Oxs_EulerEvolve:evolve:Energy calc count} {Oxs_EulerEvolve:evolve:Max dm/dt} Oxs_EulerEvolve:evolve:dE/dt {Oxs_EulerEvolve:evolve:Delta E} Oxs_CubicAnisotropy::Energy Oxs_UniformExchange::Energy {Oxs_UniformExchange::Max Spin Ang} {Oxs_UniformExchange::Stage Max Spin Ang} {Oxs_UniformExchange::Run Max Spin Ang} Oxs_TimeDriver::Iteration {Oxs_TimeDriver::Stage iteration} Oxs_TimeDriver::Stage Oxs_TimeDriver::mx   Oxs_TimeDriver::my   Oxs_TimeDriver::mz   {Oxs_TimeDriver::Last time step} {Oxs_TimeDriver::Simulation time}
# Units:                     J                                       {}                                   deg/ns                           J/s                             J                              J                           J                              deg                                    deg                                      deg                              {}                            {}                          {}                   {}                   {}                   {}                          s                                 s                
                   -6.4059176122992118e-22                      1                                      5065.3861815317377             -2.0034519903773996e-09            0                            -1.1895208951113988e-21         5.4892913388147762e-22             5.74733545470556                       5.74733545470556                         5.74733545470556                 0                             0                           0                     0.74707730126211425  0.59230320297629513  0.29755505355776829        0                                0                         
                   -6.4454281860762954e-22                      2                                      5063.2981759893801             -2.0020813962258439e-09           -3.9510573777083259e-24          -1.1946331449625861e-21         5.500903263549566e-22             5.7534162438031426                     5.7534162438031426                       5.7534162438031426               1                             1                           0                     0.7471034091799148   0.59224341738614372  0.2975995664546644         1.9741831405589039e-15              1.9741831405589039e-15       
                   -6.4947697359248335e-22                      3                                      5060.6888567984497             -2.00036998472659e-09           -4.9341549848538181e-24          -1.2010217412943588e-21         5.5154476770187543e-22             5.7610236584506067                     5.7610236584506067                       5.7610236584506067               2                             2                           0                     0.74713604982363557  0.59216867842722365  0.29765515485740568        2.46772892569863e-15              4.4419120662575343e-15       
                   -6.5563738414090179e-22                      4                                      5057.4282841865979             -1.9982335796385885e-09           -6.1604105484184067e-24          -1.2090048010350889e-21         5.5336741689418724e-22             5.7705428627968081                     5.7705428627968081                       5.7705428627968081               3                             3                           0                     0.74717685960332192  0.59207524390822985  0.29772455799025055        3.0846611571232875e-15              7.5265732233808217e-15       
                   -6.6332653412805489e-22                      5                                      5053.3542537100166             -1.9955675370791237e-09           -7.6891499871531633e-24          -1.2189794206724904e-21         5.556528865444355e-22             5.7824571834403802                     5.7824571834403802                       5.7824571834403802               4                             4                           0                     0.74722788584383204  0.59195843399363923  0.29781118320622524        3.8558264464041093e-15              1.1382399669784931e-14       
                   -6.7292024934948337e-22                      6                                      5048.2643555115028             -1.9922419510117332e-09           -9.5937152214284332e-24          -1.2314411079607585e-21         5.5852085861127523e-22             5.7973736077344649                     5.7973736077344649                       5.7973736077344649               5                             5                           0                     0.74729169052919209  0.5918123956788266   0.29791926364069488        4.8197830580051363e-15              1.6202182727790069e-14       
                   -6.8488476620807654e-22                      7                                      5041.9061203097626             -1.9880958396469794e-09           -1.1964516858593187e-23          -1.247007891629417e-21         5.6212312542134035e-22             5.816055107624039                      5.816055107624039                        5.816055107624039                6                             6                           0                     0.74737148055050073  0.59162980781957653  0.29805405000566015        6.0247288225064207e-15              2.2226911550296488e-14       
                   -6.9979736940236666e-22                      8                                      5033.9648154315482             -1.9829301571714908e-09           -1.4912603194290089e-23          -1.2664501738666051e-21         5.6665280446423845e-22             5.8394616693555115                     5.8394616693555115                       5.8394616693555115               7                             7                           0                     0.74747127139843739  0.59140151159610643  0.29822204209756054        7.5309110281330255e-15              2.9757822578429512e-14       
                   -7.1837111178272881e-22                      9                                      5024.0483693842407             -1.9764994902834214e-09           -1.8573742380362144e-23          -1.2907275943683118e-21         5.7235648258558312e-22             5.8688024068473981                     5.8688024068473981                       5.8688024068473981               8                             8                           0                     0.7475960931496104   0.59111604742218782  0.29843126532267078        9.4136387851662823e-15              3.9171461363595799e-14       
                   -7.4148405746456199e-22                      10                                     5011.6688117935964             -1.9685023462863949e-09           -2.3112945681833249e-23          -1.3210343918087033e-21         5.7955033434414133e-22             5.9056017140822368                     5.9056017140822368                       5.9056017140822368               9                             9                           0                     0.74775225007356527  0.59075907447537135  0.29869159627938308        1.1767048481457852e-14              5.093850984505365e-14       
                   -7.702132985447076e-22                      11                                     4996.2195236070274             -1.9585700409995902e-09           -2.872924108014556e-23          -1.3588549579293955e-21         5.8864165938468785e-22             5.9517830180556937                     5.9517830180556937                       5.9517830180556937               10                            10                          0                     0.74794764842281558  0.59031264303416575  0.2990151384121621         1.4708810601822317e-14              6.5647320446875964e-14       
# Table End
