# ODT 1.0
# Table Start
# Title: mmArchive Data Table, Wed Jun 16 18:47:01 EDT 2010
# Columns: {Oxs_EulerEvolve:evolve:Total energy} {Oxs_EulerEvolve:evolve:Energy calc count} {Oxs_EulerEvolve:evolve:Max dm/dt} Oxs_EulerEvolve:evolve:dE/dt {Oxs_EulerEvolve:evolve:Delta E} Oxs_CubicAnisotropy::Energy Oxs_UniformExchange::Energy {Oxs_UniformExchange::Max Spin Ang} {Oxs_UniformExchange::Stage Max Spin Ang} {Oxs_UniformExchange::Run Max Spin Ang} Oxs_TimeDriver::Iteration {Oxs_TimeDriver::Stage iteration} Oxs_TimeDriver::Stage Oxs_TimeDriver::mx   Oxs_TimeDriver::my   Oxs_TimeDriver::mz   {Oxs_TimeDriver::Last time step} {Oxs_TimeDriver::Simulation time}
# Units:                     J                                       {}                                   deg/ns                           J/s                             J                              J                           J                              deg                                    deg                                      deg                              {}                            {}                          {}                   {}                   {}                   {}                          s                                 s                
                    7.3366925169455136e-18                      1                                      31464.985779923369             -1.547015037233301e-05            0                            -7.4267291134099916e-19         8.0793654282865127e-18             23.832877308341594                     23.832877308341594                       23.832877308341594               0                             0                           0                     0.79409390110715505  0.53520648799166626  0.2681128426134996         0                                0                         
                    7.3317798099343837e-18                      2                                      31453.010802839384             -1.5460345610557288e-05           -4.9127070111305497e-21          -7.4294627043663887e-19         8.0747260803710228e-18             23.824471826548375                     23.832877308341594                       23.832877308341594               1                             1                           0                     0.7940959592592417   0.5352077194650654   0.26811336306896594        3.1781358713915666e-16              3.1781358713915666e-16       
                    7.3256440412311933e-18                      3                                      31438.046263933811             -1.5448100463233495e-05           -6.135768703190835e-21          -7.4328815062412885e-19         8.0689321918553217e-18             23.81396831217484                      23.832877308341594                       23.832877308341594               2                             2                           0                     0.7940985299124248   0.5352092573879188   0.26811401297052745        3.972669839239458e-16              7.1508057106310245e-16       
                    7.3179823143925314e-18                      4                                      31419.34713601926              -1.5432810894249681e-05           -7.6617268386612268e-21          -7.4371578372618776e-19         8.0616980981187184e-18             23.800844132511443                     23.832877308341594                       23.832877308341594               3                             3                           0                     0.79410174004934453  0.53521117757652703  0.26811482430509276        4.965837299049323e-16              1.2116643009680348e-15       
                    7.3084176148288431e-18                      5                                      31395.983474589837             -1.5413725250750809e-05           -9.5646995636883449e-21          -7.4425076622256353e-19         8.0526683810514061e-18             23.784447049594235                     23.832877308341594                       23.832877308341594               4                             4                           0                     0.79410574775855269  0.53521357435544381  0.26811583684653351        6.207296623811653e-16              1.8323939633491999e-15       
                    7.2964811761819186e-18                      6                                      31366.794951610518             -1.5389909251329672e-05           -1.1936438646924453e-20          -7.4492018190883513e-19         8.0414013580907543e-18             23.763963409254078                     23.832877308341594                       23.832877308341594               5                             5                           0                     0.794110749653964    0.53521656493563052  0.26811709998534183        7.7591207797645664e-16              2.6083060413256566e-15       
                    7.2815909351961471e-18                      7                                      31330.334461213788             -1.5360203270765768e-05           -1.4890240985771256e-20          -7.4575802255541838e-19         8.0273489577515662e-18             23.738378707704211                     23.832877308341594                       23.832877308341594               6                             6                           0                     0.79411698995103197  0.53522029474890498  0.26811867495070479        9.6989009747057081e-16              3.5781961387962278e-15       
                    7.2630253700486455e-18                      8                                      31284.798320681311             -1.5323170571650661e-05           -1.8565565147502583e-20          -7.4680699045719989e-19         8.0098323605058439e-18             23.706428814130636                     23.832877308341594                       23.832877308341594               7                             7                           0                     0.79412477150491223  0.53522494390166786  0.26812063748735443        1.2123626218382135e-15              4.7905587606344411e-15       
                    7.2398919880485804e-18                      9                                      31227.940122939086             -1.5277035106625763e-05           -2.3133382000065051e-20          -7.4812079267714605e-19         7.988012780725726e-18             23.666539799319182                     23.832877308341594                       23.832877308341594               8                             8                           0                     0.79413446913332864  0.53523073491040829  0.26812308104580201        1.5154532772977668e-15              6.3060120379322075e-15       
                    7.2110897692415764e-18                      10                                     31156.964806291187             -1.5219607644073966e-05           -2.8802218807003656e-20          -7.497670716347812e-19         7.9608568408763569e-18             23.616753965683809                     23.832877308341594                       23.832877308341594               9                             9                           0                     0.79414654553778163  0.53523794185916596  0.26812612052972074        1.8943165966222086e-15              8.2003286345544158e-15       
                    7.1752650380457376e-18                      11                                     31068.399047489718             -1.5148199373703619e-05           -3.5824731195838119e-20          -7.5183116378510372e-19         7.9270962018308411e-18             23.554639316667959                     23.832877308341594                       23.832877308341594               10                            10                          0                     0.79416157007923671  0.53524690105864614  0.26812989661047476        2.3678957457777609e-15              1.0568224380332177e-14       
# Table End
