# ODT 1.0
# Table Start
# Title: mmArchive Data Table, Wed Jun 16 18:47:09 EDT 2010
# Columns: {Oxs_EulerEvolve:evolve:Total energy} {Oxs_EulerEvolve:evolve:Energy calc count} {Oxs_EulerEvolve:evolve:Max dm/dt} Oxs_EulerEvolve:evolve:dE/dt {Oxs_EulerEvolve:evolve:Delta E} Oxs_CubicAnisotropy::Energy Oxs_UniformExchange::Energy {Oxs_UniformExchange::Max Spin Ang} {Oxs_UniformExchange::Stage Max Spin Ang} {Oxs_UniformExchange::Run Max Spin Ang} Oxs_TimeDriver::Iteration {Oxs_TimeDriver::Stage iteration} Oxs_TimeDriver::Stage Oxs_TimeDriver::mx   Oxs_TimeDriver::my   Oxs_TimeDriver::mz   {Oxs_TimeDriver::Last time step} {Oxs_TimeDriver::Simulation time}
# Units:                     J                                       {}                                   deg/ns                           J/s                             J                              J                           J                              deg                                    deg                                      deg                              {}                            {}                          {}                   {}                   {}                   {}                          s                                 s                
                    3.835328489248074e-17                      1                                      32095.558005390751             -7.8867719322251844e-05            0                            -1.6720851839225859e-18         4.0025370076403325e-17             24.266980752994527                     24.266980752994527                       24.266980752994527               0                             0                           0                     0.79542606677582184  0.53392323709464451  0.26776731434259221        0                                0                         
                    3.8328731909968736e-17                      2                                      32085.375459402232             -7.8817215000155565e-05           -2.4552982512003336e-20          -1.6734210324794192e-18         4.0002152942448154e-17             24.262350088053775                     24.266980752994527                       24.266980752994527               1                             1                           0                     0.79542799296724664  0.53392449913380569  0.26776802940796057        3.1156959471838457e-16              3.1156959471838457e-16       
                    3.829806651812598e-17                      3                                      32072.655201257392             -7.8754140837625767e-05           -3.0665391842756492e-20          -1.6750918138251452e-18         3.9973158331951123e-17             24.256563083306268                     24.266980752994527                       24.266980752994527               2                             2                           0                     0.79543039866827159  0.5339260752928825   0.2677689225741936         3.8946199339798069e-16              7.0103158811636531e-16       
                    3.825977510544548e-17                      4                                      32056.767248026248             -7.8675385917166064e-05           -3.8291412680499049e-20          -1.6771818050542452e-18         3.9936956910499722e-17             24.2493313974133                       24.266980752994527                       24.266980752994527               3                             3                           0                     0.79543340261287188  0.53392804332218369  0.26777003799318744        4.8682749174747592e-16              1.1878590798638411e-15       
                    3.8211973768615107e-17                      5                                      32036.926609628084             -7.8577079246736591e-05           -4.780133683036973e-20          -1.6797966564834218e-18         3.9891770425098531e-17             24.240295019601533                     24.266980752994527                       24.266980752994527               4                             4                           0                     0.79543715257828174  0.53393049997306119  0.26777143064578091        6.0853436468434486e-16              1.796393444548186e-15       
                    3.8152320264046779e-17                      6                                      32012.155925578023             -7.8454409588504258e-05           -5.9653504568332112e-20          -1.6830689040302214e-18         3.9835389168076998e-17             24.229004583983098                     24.266980752994527                       24.266980752994527               5                             5                           0                     0.79544183228847221  0.53393356550454774  0.26777316893232445        7.6066795585543107e-16              2.5570614004036171e-15       
                    3.8077906456299843e-17                      7                                      31981.239531131396             -7.8301405704840025e-05           -7.4413807746934332e-20          -1.6871649529839439e-18         3.976507140928379e-17             24.214899390622485                     24.266980752994527                       24.266980752994527               6                             6                           0                     0.79544766984514415  0.53393738918144551  0.26777533784613172        9.5083494481928893e-16              3.507896345222906e-15       
                    3.7985127764919322e-17                      8                                      31942.66723298121              -7.8110670122415697e-05           -9.277869138052163e-20          -1.6922939517800635e-18         3.9677421716699387e-17             24.197280130092082                     24.266980752994527                       24.266980752994527               7                             7                           0                     0.79545494795904781  0.5339421559373998   0.26777804283992651        1.188543681024111e-15              4.6964400262470174e-15       
                    3.786952597931868e-17                      9                                      31894.565872434985             -7.7873059405702869e-05           -1.1560178560064402e-19          -1.6987191059667567e-18         3.9568245085285432e-17             24.175275094918319                     24.266980752994527                       24.266980752994527               8                             8                           0                     0.79546401626364704  0.53394809437969726  0.26778141450366655        1.4856796012801388e-15              6.1821196275271558e-15       
                    3.7725602034367753e-17                      10                                     31834.616619486162             -7.7577304637108704e-05           -1.439239449509219e-19          -1.706772160625486e-18         3.9432374194993243e-17             24.147798413913119                     24.266980752994527                       24.266980752994527               9                             9                           0                     0.79547530597368166  0.53395548629545242  0.26778561417235225        1.8570995016001734e-15              8.0392191291273288e-15       
                    3.7546596196596376e-17                      11                                     31759.955948232804             -7.7209567939632469e-05           -1.7900583777138007e-19          -1.7168720218952008e-18         3.9263468218491573e-17             24.113498564529053                     24.266980752994527                       24.266980752994527               10                            10                          0                     0.7954893470804858   0.53396467776597789  0.26779084056757912        2.3213743770002169e-15              1.0360593506127546e-14       
# Table End
