# ODT 1.0
# Table Start
# Title: mmArchive Data Table, Wed Jun 16 18:47:01 EDT 2010
# Columns: {Oxs_EulerEvolve:evolve:Total energy} {Oxs_EulerEvolve:evolve:Energy calc count} {Oxs_EulerEvolve:evolve:Max dm/dt} Oxs_EulerEvolve:evolve:dE/dt {Oxs_EulerEvolve:evolve:Delta E} Oxs_CubicAnisotropy::Energy Oxs_UniformExchange::Energy {Oxs_UniformExchange::Max Spin Ang} {Oxs_UniformExchange::Stage Max Spin Ang} {Oxs_UniformExchange::Run Max Spin Ang} Oxs_TimeDriver::Iteration {Oxs_TimeDriver::Stage iteration} Oxs_TimeDriver::Stage Oxs_TimeDriver::mx   Oxs_TimeDriver::my   Oxs_TimeDriver::mz   {Oxs_TimeDriver::Last time step} {Oxs_TimeDriver::Simulation time}
# Units:                     J                                       {}                                   deg/ns                           J/s                             J                              J                           J                              deg                                    deg                                      deg                              {}                            {}                          {}                   {}                   {}                   {}                          s                                 s                
                    9.7025969640754741e-18                      1                                      34240.770307124447             -1.9288775558682023e-05            0                            -2.7249514871893989e-19         9.9750921127944147e-18             23.832877308341594                     23.832877308341594                       23.832877308341594               0                             0                           0                     0.79415430728570313  0.53486364887231763  0.26863907773018231        0                                0                         
                    9.6969678379427808e-18                      2                                      34231.932462609802             -1.9277542365341486e-05           -5.6291261326945394e-21          -2.7282110965261036e-19         9.9697889475953906e-18             23.826998911435123                     23.832877308341594                       23.832877308341594               1                             1                           0                     0.79415620690642974  0.53486488232968166  0.26863956563838359        2.9204950444468563e-16              2.9204950444468563e-16       
                    9.6899368243277731e-18                      3                                      34220.890747012258             -1.9263512260923687e-05           -7.0310136150070461e-21          -2.7322877471149228e-19         9.9631655990392651e-18             23.819653584769576                     23.832877308341594                       23.832877308341594               2                             2                           0                     0.79415857971000348  0.5348664228667982   0.2686401748382089         3.6506188055585705e-16              6.5711138500054263e-16       
                    9.6811564775019653e-18                      4                                      34207.097322785921             -1.9245992405650743e-05           -8.7803468258077083e-21          -2.737386899101049e-19         9.9548951674120708e-18             23.810476095693101                     23.832877308341594                       23.832877308341594               3                             3                           0                     0.79416154302567199  0.53486834653285664  0.26864093526787419        4.5632735069482133e-16              1.113438735695364e-15       
                    9.6701941848913449e-18                      5                                      34189.869140249422             -1.9224120326554995e-05           -1.0962292610621172e-20          -2.7437660494143145e-19         9.9445707898327752e-18             23.799010745320107                     23.832877308341594                       23.832877308341594               4                             4                           0                     0.79416524297359303  0.53487074798566492  0.26864188413458179        5.7040918836852667e-16              1.6838479240638906e-15       
                    9.6565118213341227e-18                      6                                      34168.355104528971             -1.9196823505442922e-05           -1.3682363557221748e-20          -2.7517481158099578e-19         9.931686632915119e-18             23.784689223939466                     23.832877308341594                       23.832877308341594               5                             5                           0                     0.79416986136014489  0.53487374491839157  0.26864306761129014        7.1301148546065824e-16              2.396859409524549e-15       
                    9.6394408421503994e-18                      7                                      34141.495567623955             -1.9162769971896172e-05           -1.70709791837231e-20          -2.761738374890588e-19         9.915614679639459e-18             23.766803194217719                     23.832877308341594                       23.832877308341594               6                             6                           0                     0.79417562412896958  0.5348774834677682   0.26864454289064804        8.9126435682582292e-16              3.2881237663503717e-15       
                    9.6181519636921751e-18                      8                                      34107.972515289017             -1.9120308261802423e-05           -2.1288878458225013e-20          -2.7742459568349215e-19         9.8955765593756666e-18             23.744470431155047                     23.832877308341594                       23.832877308341594               7                             7                           0                     0.79418281166402849  0.53488214478016871  0.26864638064838398        1.1140804460322786e-15              4.4022042123826507e-15       
                    9.5916185236451782e-18                      9                                      34066.148562065908             -1.9067395021502036e-05           -2.653344004699677e-20          -2.789911211857183e-19         9.870609644830896e-18             23.71659313630127                      23.832877308341594                       23.832877308341594               8                             8                           0                     0.79419177126470308  0.53488795291869873  0.26864866796136078        1.3926005575403482e-15              5.7948047699229986e-15       
                    9.5585726251391868e-18                      10                                     34013.992621990263             -1.9001508610081341e-05           -3.3045898505990775e-20          -2.8095406859213297e-19         9.83952669373132e-18             23.681806823861326                     23.832877308341594                       23.832877308341594               9                             9                           0                     0.79420293211603143  0.53489518428312022  0.26865151170594964        1.7407506969254353e-15              7.5355554668484334e-15       
                    9.5174533067264443e-18                      11                                     33948.989922077366             -1.8919547401672228e-05           -4.1119318412742767e-20          -2.8341520191189355e-19         9.8008685086383373e-18             23.63841796967721                      23.832877308341594                       23.832877308341594               10                            10                          0                     0.79421682304095154  0.53490417867071949  0.26865504242177096        2.1759383711567942e-15              9.7114938380052276e-15       
# Table End
