# ODT 1.0
# Table Start
# Title: mmArchive Data Table, Wed Jun 16 18:47:11 EDT 2010
# Columns: {Oxs_EulerEvolve:evolve:Total energy} {Oxs_EulerEvolve:evolve:Energy calc count} {Oxs_EulerEvolve:evolve:Max dm/dt} Oxs_EulerEvolve:evolve:dE/dt {Oxs_EulerEvolve:evolve:Delta E} Oxs_CubicAnisotropy::Energy Oxs_UniformExchange::Energy {Oxs_UniformExchange::Max Spin Ang} {Oxs_UniformExchange::Stage Max Spin Ang} {Oxs_UniformExchange::Run Max Spin Ang} Oxs_TimeDriver::Iteration {Oxs_TimeDriver::Stage iteration} Oxs_TimeDriver::Stage Oxs_TimeDriver::mx   Oxs_TimeDriver::my   Oxs_TimeDriver::mz   {Oxs_TimeDriver::Last time step} {Oxs_TimeDriver::Simulation time}
# Units:                     J                                       {}                                   deg/ns                           J/s                             J                              J                           J                              deg                                    deg                                      deg                              {}                            {}                          {}                   {}                   {}                   {}                          s                                 s                
                    3.3528225455937232e-22                      1                                      6091.6024587218535             -3.5659598754707418e-09            0                            -1.1895208951113988e-21         1.5248031496707712e-21             5.74733545470556                       5.74733545470556                         5.74733545470556                 0                             0                           0                     0.74707730126211425  0.59230320297629513  0.29755505355776829        0                                0                         
                    3.2943970451124027e-22                      2                                      6085.5851808183888             -3.5608587349953706e-09           -5.8425500481320664e-24          -1.1964256166012619e-21         1.5258653211125021e-21             5.7493385718219319                     5.7493385718219319                       5.7493385718219319               1                             1                           0                     0.74710001123269243  0.5922542821592035   0.29759246607227613        1.6416041702921978e-15              1.6416041702921978e-15       
                    3.2215050016893548e-22                      3                                      6078.0665547381732             -3.5544963278213159e-09           -7.2892043423047783e-24          -1.2050501737974075e-21         1.5272006739663429e-21             5.7518558870616747                     5.7518558870616747                       5.7518558870616747               2                             2                           0                     0.7471283986526428   0.59219312924678957  0.29763919407789141        2.0520052128652474e-15              3.6936093831574448e-15       
                    3.13060786927935e-22                      4                                      6068.6729035980698             -3.546565162038432e-09           -9.0897132410004827e-24          -1.2158209347114449e-21         1.52888172163938e-21             5.7550233220494293                     5.7550233220494293                       5.7550233220494293               3                             3                           0                     0.74716388286188928  0.59211668524031824  0.29769754533882825        2.5650065160815591e-15              6.2586158992390039e-15       
                    3.0173258548087262e-22                      5                                      6056.9380545031199             -3.5366852167951929e-09           -1.1328201447062385e-23          -1.2292688185745677e-21         1.5310014040554402e-21             5.7590147590484522                     5.7590147590484522                       5.7590147590484522               4                             4                           0                     0.74720823802429215  0.59202112592722422  0.29777039274664457        3.2062581451019489e-15              9.4648740443409528e-15       
                    2.876251507052883e-22                      6                                      6042.2807237725001             -3.5243881994009483e-09           -1.4107434775584321e-23          -1.2460542659510158e-21         1.5336794166563041e-21             5.7640536129688611                     5.7640536129688611                       5.7640536129688611               5                             5                           0                     0.74726368182852709  0.59190167039626829  0.29786130901426733        4.0078226813774364e-15              1.347269672571839e-14       
                    2.7007296716072249e-22                      7                                      6023.976525395834              -3.5090991598106954e-09           -1.7552183544565818e-23          -1.2669977759637575e-21         1.53707074312448e-21             5.7704283202704199                     5.7704283202704199                       5.7704283202704199               6                             6                           0                     0.74733298636183287  0.59175234165456281  0.29797473139308944        5.0097783517217949e-15              1.8482475077440184e-14       
                    2.4826022554846379e-22                      8                                      6001.123405358313              -3.4901154817713966e-09           -2.1812741612258698e-23          -1.2931170051092792e-21         1.541377230657743e-21             5.7785131633885074                     5.7785131633885074                       5.7785131633885074               7                             7                           0                     0.74741961669824364  0.59156566742715477  0.29811616191885515        6.2622229396522438e-15              2.4744698017092429e-14       
                    2.2119193019396675e-22                      9                                      5972.5990794125337             -3.4665836135045153e-09           -2.7068295354497046e-23          -1.3256714311980359e-21         1.5468633613920027e-21             5.7887963264612692                     5.7887963264612692                       5.7887963264612692               8                             8                           0                     0.74752790412610948  0.59133230633638834  0.29829240899524856        7.8277786745653043e-15              3.2572476691657732e-14       
                    1.8766232669012958e-22                      10                                     5937.0088047393947             -3.4374744813900466e-09           -3.3529603503837165e-23          -1.3662154479062165e-21         1.553877774596346e-21             5.8019176327530966                     5.8019176327530966                       5.8019176327530966               9                             9                           0                     0.74766326266469385  0.59104058116786151  0.29851187595010126        9.7847233432066316e-15              4.2357200034864365e-14       
                    1.4622222551490937e-22                      11                                     5892.6215537470598             -3.4015594573978636e-09           -4.1440101175220208e-23          -1.4166603365310511e-21         1.5628825620459605e-21             5.8187189485292308                     5.8187189485292308                       5.8187189485292308               10                            10                          0                     0.74783245966507195  0.59067589679804477  0.2987849011676888         1.2230904179008288e-14              5.4588104213872654e-14       
# Table End
