# ODT 1.0
# Table Start
# Title: mmArchive Data Table, Wed Jun 16 18:46:59 EDT 2010
# Columns: {Oxs_EulerEvolve:evolve:Total energy} {Oxs_EulerEvolve:evolve:Energy calc count} {Oxs_EulerEvolve:evolve:Max dm/dt} Oxs_EulerEvolve:evolve:dE/dt {Oxs_EulerEvolve:evolve:Delta E} Oxs_CubicAnisotropy::Energy Oxs_UniformExchange::Energy {Oxs_UniformExchange::Max Spin Ang} {Oxs_UniformExchange::Stage Max Spin Ang} {Oxs_UniformExchange::Run Max Spin Ang} Oxs_TimeDriver::Iteration {Oxs_TimeDriver::Stage iteration} Oxs_TimeDriver::Stage Oxs_TimeDriver::mx   Oxs_TimeDriver::my   Oxs_TimeDriver::mz   {Oxs_TimeDriver::Last time step} {Oxs_TimeDriver::Simulation time}
# Units:                     J                                       {}                                   deg/ns                           J/s                             J                              J                           J                              deg                                    deg                                      deg                              {}                            {}                          {}                   {}                   {}                   {}                          s                                 s                
                    3.7771613880068576e-18                      1                                      27526.218523518834             -6.5650254521782465e-06            0                             2.4607381589962049e-19         3.5310875721072373e-18             23.832877308341594                     23.832877308341594                       23.832877308341594               0                             0                           0                     0.79613716561204562  0.53103523224032323  0.27019313220247032        0                                0                         
                    3.7747784777448986e-18                      2                                      27518.477346870361             -6.5604415087897076e-06           -2.3829102619590704e-21           2.4589967035675381e-19         3.5288788073881445e-18             23.825736094266652                     23.832877308341594                       23.832877308341594               1                             1                           0                     0.79613982662123006  0.53103594245693897  0.27019386811135987        3.6329000263715277e-16              3.6329000263715277e-16       
                    3.7718025747198293e-18                      3                                      27508.805382640101             -6.5547171236161373e-06           -2.9759030250688814e-21           2.4568192938956198e-19         3.5261206453302677e-18             23.816812207690987                     23.832877308341594                       23.832877308341594               2                             2                           0                     0.79614315035953187  0.53103682844975675  0.27019478710423223        4.5411250329644091e-16              8.1740250593359368e-16       
                    3.7680869642355882e-18                      4                                      27496.72245288637              -6.5475702949879181e-06           -3.7156104842415754e-21           2.454096611933078e-19         3.5226773030422805e-18             23.805661455841165                     23.832877308341594                       23.832877308341594               3                             3                           0                     0.79614730109416687  0.53103793316578141  0.27019593445112933        5.6764062912055121e-16              1.3850431350541448e-15       
                    3.7634491109200682e-18                      5                                      27481.6297369071               -6.5386502602276742e-06           -4.6378533155195669e-21           2.4506918272628288e-19         3.5183799281937853e-18             23.791729423268603                     23.832877308341594                       23.832877308341594               4                             4                           0                     0.79615248336719813  0.5310393097308328   0.27019736645923736        7.0955078640068902e-16              2.0945939214548339e-15       
                    3.7576621818201995e-18                      6                                      27462.780884633929             -6.5275212750079375e-06           -5.7869290998686049e-21           2.4464336185028304e-19         3.5130188199699172e-18             23.774324376390037                     23.832877308341594                       23.832877308341594               5                             5                           0                     0.79615895162258477  0.53104102368316486  0.27019915307581588        8.8693848300086125e-16              2.9815324044556952e-15       
                    3.7504447151644161e-18                      7                                      27439.246330213457             -6.5136428746071177e-06           -7.21746665578357e-21           2.4411073957628302e-19         3.506333975588133e-18             23.75258364910863                      23.832877308341594                       23.832877308341594               6                             6                           0                     0.7961670219951722   0.53104315559311455  0.27020138105518671        1.1086731037510766e-15              4.0902055082067715e-15       
                    3.7414481163122608e-18                      8                                      27409.869330345035             -6.4963460317488692e-06           -8.9965988521554143e-21           2.4344442459863708e-19         3.4980036917136241e-18             23.725432019490608                     23.832877308341594                       23.832877308341594               7                             7                           0                     0.79617708666780851  0.53104580407079138  0.27020415778325496        1.3858413796888456e-15              5.4760468878956174e-15       
                    3.730241660746525e-18                      9                                      27373.211997485949             -6.47480463745975e-06           -1.1206455565735509e-20           2.4261069894701923e-19         3.4876309617995063e-18             23.69153029008012                      23.832877308341594                       23.832877308341594               8                             8                           0                     0.79618963123198871  0.53104908911348503  0.27020761585079478        1.7323017246110571e-15              7.2083486125066741e-15       
                    3.7162947223148186e-18                      10                                     27327.48933336528              -6.4480018280627628e-06           -1.3946938431706499e-20           2.4156725629190791e-19         3.4747274660229112e-18             23.649211951714395                     23.832877308341594                       23.832877308341594               9                             9                           0                     0.79620525548625198  0.53105315565511413  0.27021191845060077        2.1653771557638215e-15              9.3737257682704952e-15       
                    3.6989560528898597e-18                      11                                     27270.48901098864              -6.4146909240012048e-06           -1.7338669424959034e-20           2.4026097205732445e-19         3.4586950808325355e-18             23.596405452808749                     23.832877308341594                       23.832877308341594               10                            10                          0                     0.79622469804897378  0.5310581770290459   0.27021726563358139        2.7067214447047768e-15              1.2080447212975273e-14       
# Table End
