# ODT 1.0
# Table Start
# Title: mmArchive Data Table, Wed Jun 16 18:47:14 EDT 2010
# Columns: {Oxs_EulerEvolve:evolve:Total energy} {Oxs_EulerEvolve:evolve:Energy calc count} {Oxs_EulerEvolve:evolve:Max dm/dt} Oxs_EulerEvolve:evolve:dE/dt {Oxs_EulerEvolve:evolve:Delta E} Oxs_CubicAnisotropy::Energy Oxs_UniformExchange::Energy {Oxs_UniformExchange::Max Spin Ang} {Oxs_UniformExchange::Stage Max Spin Ang} {Oxs_UniformExchange::Run Max Spin Ang} Oxs_TimeDriver::Iteration {Oxs_TimeDriver::Stage iteration} Oxs_TimeDriver::Stage Oxs_TimeDriver::mx   Oxs_TimeDriver::my   Oxs_TimeDriver::mz   {Oxs_TimeDriver::Last time step} {Oxs_TimeDriver::Simulation time}
# Units:                     J                                       {}                                   deg/ns                           J/s                             J                              J                           J                              deg                                    deg                                      deg                              {}                            {}                          {}                   {}                   {}                   {}                          s                                 s                
                    6.0523193331037711e-17                      1                                      34430.945659560646             -0.00011991281134689371            0                            -9.7916938355555475e-20         6.0621110269393272e-17             24.949551921938447                     24.949551921938447                       24.949551921938447               0                             0                           0                     0.7951710570576197   0.53413588302382087  0.26802148874308868        0                                0                         
                    6.0488392718772555e-17                      2                                      34419.899396697787             -0.00011984057560604555           -3.480061226516761e-20          -9.9537209547455648e-20         6.0587929928320011e-17             24.942484470500435                     24.949551921938447                       24.949551921938447               1                             1                           0                     0.79517276941246751  0.53413722048808909  0.26802221361205852        2.9043640273130984e-16              2.9043640273130984e-16       
                    6.04449264123291e-17                      3                                      34406.094946539415             -0.00011975035675409844           -4.3466306443454464e-20          -1.0156379516961362e-19         6.0546490207498702e-17             24.933651407680738                     24.949551921938447                       24.949551921938447               2                             2                           0                     0.79517490806028668  0.53413889108390544  0.26802311909904014        3.6304550341413727e-16              6.5348190614544711e-16       
                    6.0390647318373319e-17                      4                                      34388.84465815164              -0.00011963770154640606           -5.4279093955780278e-20          -1.0409897304228375e-19         6.0494746291415598e-17             24.922612034608203                     24.949551921938447                       24.949551921938447               3                             3                           0                     0.79517757856676652  0.53414097740151012  0.26802425002230562        4.5380687926767157e-16              1.1072887854131187e-15       
                    6.032288239316692e-17                      5                                      34367.290030106546             -0.00011949706723989941           -6.7764925206391702e-20          -1.0727098182504471e-19         6.0430153374991968e-17             24.908815873698543                     24.949551921938447                       24.949551921938447               4                             4                           0                     0.79518091232469479  0.53414358229077374  0.26802566221636109        5.6725859908458946e-16              1.6745473844977082e-15       
                    6.0238307195080167e-17                      6                                      34340.359591457389             -0.00011932156250663331           -8.4575198086759586e-20          -1.1124072954827726e-19         6.0349547924628435e-17             24.891575446750327                     24.949551921938447                       24.949551921938447               5                             5                           0                     0.79518507269560457  0.5341468337094929   0.2680274251808229         7.0907324885573685e-16              2.3836206333534451e-15       
                    6.0132792427499719e-17                      7                                      34306.716583260364             -0.00011910263094932424           -1.0551476758044272e-19          -1.1621030033839157e-19         6.0249002727838116e-17             24.870032372899175                     24.949551921938447                       24.949551921938447               6                             6                           0                     0.79519026251175806  0.53415089066343391  0.26802962533306485        8.8634156106967107e-16              3.2699621944231163e-15       
                    6.000121731256118e-17                      8                                      34264.694073335362             -0.00011882966692155762           -1.315751149385415e-19          -1.2243377532038205e-19         6.0123651087881565e-17             24.843115186926447                     24.949551921938447                       24.949551921938447               7                             7                           0                     0.79519673318213913  0.53415595044481101  0.26803236998338054        1.1079269513370889e-15              4.3778891457602047e-15       
                    5.983724434253017e-17                      9                                      34212.214645003616             -0.00011848955297047577           -1.639729700310132e-19          -1.3023104846565597e-19         5.9967475390995816e-17             24.809486918250567                     24.949551921938447                       24.949551921938447               8                             8                           0                     0.7952047956547581   0.5341622573916458   0.26803579216361673        1.3849086891713611e-15              5.7627978349315664e-15       
                    5.9633050111370594e-17                      10                                     34146.691239481865             -0.00011806610888616144           -2.0419423115956904e-19          -1.4000554276121445e-19         5.9773055654131807e-17             24.767480043106744                     24.949551921938447                       24.949551921938447               9                             9                           0                     0.79521483347077926  0.53417011339121756  0.26804005644627227        1.7311358614642013e-15              7.4939336963957671e-15       
                    5.9379007905540212e-17                      11                                     34064.905112862449             -0.00011753944488999606           -2.5404220583037911e-19          -1.5226704051505324e-19         5.9531274946055271e-17             24.715015922678699                     24.949551921938447                       24.949551921938447               10                            10                          0                     0.7952273180835695   0.53417989032335955  0.26804536588473293        2.1639198268302515e-15              9.6578535232260197e-15       
# Table End
