# ODT 1.0
# Table Start
# Title: mmArchive Data Table, Wed Jun 16 18:47:12 EDT 2010
# Columns: {Oxs_EulerEvolve:evolve:Total energy} {Oxs_EulerEvolve:evolve:Energy calc count} {Oxs_EulerEvolve:evolve:Max dm/dt} Oxs_EulerEvolve:evolve:dE/dt {Oxs_EulerEvolve:evolve:Delta E} Oxs_CubicAnisotropy::Energy Oxs_UniformExchange::Energy {Oxs_UniformExchange::Max Spin Ang} {Oxs_UniformExchange::Stage Max Spin Ang} {Oxs_UniformExchange::Run Max Spin Ang} Oxs_TimeDriver::Iteration {Oxs_TimeDriver::Stage iteration} Oxs_TimeDriver::Stage Oxs_TimeDriver::mx   Oxs_TimeDriver::my   Oxs_TimeDriver::mz   {Oxs_TimeDriver::Last time step} {Oxs_TimeDriver::Simulation time}
# Units:                     J                                       {}                                   deg/ns                           J/s                             J                              J                           J                              deg                                    deg                                      deg                              {}                            {}                          {}                   {}                   {}                   {}                          s                                 s                
                   -9.0945501047799183e-22                      1                                      4902.4508523405757             -1.795522571662373e-09            0                            -1.1895208951113988e-21         2.8006588463340696e-22             5.74733545470556                       5.74733545470556                         5.74733545470556                 0                             0                           0                     0.74707730126211425  0.59230320297629513  0.29755505355776829        0                                0                         
                   -9.1311453925537519e-22                      2                                      4901.0784087846068             -1.7946001103583049e-09           -3.6595287773832797e-24          -1.1938945397235212e-21         2.8078000046814609e-22             5.7546642652687456                     5.7546642652687456                       5.7546642652687456               1                             1                           0                     0.74710393408038411  0.59224115859769699  0.29760090931892114        2.0397960736772515e-15              2.0397960736772515e-15       
                   -9.1768567114636e-22                      3                                      4899.3631680334511             -1.7934477556628753e-09           -4.571131890984883e-24          -1.19936005039731e-21         2.8167437925095e-22             5.7638299741407799                     5.7638299741407799                       5.7638299741407799               2                             2                           0                     0.74713723200130222  0.59216359368772875  0.29765817286778634        2.5497450920965641e-15              4.5895411657738156e-15       
                   -9.2339446575909051e-22                      4                                      4897.2196107677364             -1.7920084420662732e-09           -5.7087946127304712e-24          -1.2061895231586365e-21         2.8279505739954603e-22             5.7752943642359797                     5.7752943642359797                       5.7752943642359797               3                             3                           0                     0.74717886517736887  0.59206662287048506  0.2977296645511161         3.1871813651207052e-15              7.7767225308945204e-15       
                   -9.3052246511410888e-22                      5                                      4894.5409424098316             -1.7902110687313622e-09           -7.1279993550185032e-24          -1.2147225870960246e-21         2.8420012198191567e-22             5.7896360253800125                     5.7896360253800125                       5.7896360253800125               4                             4                           0                     0.74723092347667353  0.59194538653886541  0.29781889201380202        3.9839767064008816e-15              1.1760699237295402e-14       
                   -9.3941998650822058e-22                      6                                      4891.193836266968              -1.7879671221536398e-09           -8.897521394111565e-24          -1.2253830102630448e-21         2.8596302375482424e-22             5.8075802491855848                     5.8075802491855848                       5.8075802491855848               5                             5                           0                     0.74729602263339301  0.59179380573175999  0.29793021200486236        4.9799708830011016e-15              1.6740670120296504e-14       
                   -9.5052241653260329e-22                      7                                      4887.0119002415549             -1.7851665298499317e-09           -1.110243002438281e-23          -1.238699299924979e-21         2.8817688339237568e-22             5.8300367208411314                     5.8300367208411314                       5.8300367208411314               6                             6                           0                     0.74737743761982356  0.59160427490641054  0.29806902698806476        6.2249636037513778e-15              2.2965633724047881e-14       
                   -9.643700781859698e-22                      8                                      4881.7875719600406             -1.7816725964801152e-09           -1.3847661653366451e-23          -1.2553302063389392e-21         2.9096012815296937e-22             5.8581470786466676                     5.8581470786466676                       5.8581470786466676               7                             7                           0                     0.74747927042669216  0.59136727666962552  0.29824202207177386        7.7812045046892214e-15              3.0746838228737101e-14       
                   -9.816322884128535e-22                      9                                      4875.2620893184385             -1.7773158622915752e-09           -1.7262210226883783e-23          -1.2760962153781358e-21         2.9446392696528218e-22             5.8933449455416884                     5.8933449455416884                       5.8933449455416884               8                             8                           0                     0.7476066614461635   0.591070898367546    0.29845744735006646        9.7265056308615272e-15              4.0473343859598631e-14       
                   -1.0031362278939633e-21                      10                                     4867.1131222503946             -1.7718867246719403e-09           -2.1503939481109741e-23          -1.3020183059309063e-21         2.9888207803694286e-22             5.9374316685598618                     5.9374316685598618                       5.9374316685598618               9                             9                           0                     0.7477660562763363   0.59070022517565224  0.29872544919886346        1.215813203857691e-14              5.2631475898175543e-14       
                   -1.0299011715265337e-21                      11                                     4856.9395942126266             -1.7651266892023086e-09           -2.6764943632570405e-23          -1.3343654395676926e-21         3.0446426804115886e-22             5.9926717034162174                     5.9926717034162174                       5.9926717034162174               10                            10                          0                     0.74796554322140874  0.59023657772089611  0.29905845053694885        1.5197665048221138e-14              6.7829140946396671e-14       
# Table End
