# ODT 1.0
# Table Start
# Title: mmArchive Data Table, Wed Jun 16 18:47:07 EDT 2010
# Columns: {Oxs_EulerEvolve:evolve:Total energy} {Oxs_EulerEvolve:evolve:Energy calc count} {Oxs_EulerEvolve:evolve:Max dm/dt} Oxs_EulerEvolve:evolve:dE/dt {Oxs_EulerEvolve:evolve:Delta E} Oxs_CubicAnisotropy::Energy Oxs_UniformExchange::Energy {Oxs_UniformExchange::Max Spin Ang} {Oxs_UniformExchange::Stage Max Spin Ang} {Oxs_UniformExchange::Run Max Spin Ang} Oxs_TimeDriver::Iteration {Oxs_TimeDriver::Stage iteration} Oxs_TimeDriver::Stage Oxs_TimeDriver::mx   Oxs_TimeDriver::my   Oxs_TimeDriver::mz   {Oxs_TimeDriver::Last time step} {Oxs_TimeDriver::Simulation time}
# Units:                     J                                       {}                                   deg/ns                           J/s                             J                              J                           J                              deg                                    deg                                      deg                              {}                            {}                          {}                   {}                   {}                   {}                          s                                 s                
                    2.6349166760483205e-17                      1                                      33222.307082622574             -4.7910997823676808e-05            0                             1.7100472762137044e-18         2.4639119484269499e-17             22.995792189961314                     22.995792189961314                       22.995792189961314               0                             0                           0                     0.79466587739961814  0.53469599403646673  0.26851672685364403        0                                0                         
                    2.6334756555466755e-17                      2                                      33210.68552463693              -4.7881654965866452e-05           -1.4410205016449384e-20           1.7093000926148986e-18         2.4625456462851858e-17             22.991138770786517                     22.995792189961314                       22.995792189961314               1                             1                           0                     0.79466772419836185  0.5346971045844261   0.2685173933163798         3.0100257562277037e-16              3.0100257562277037e-16       
                    2.6316758305950199e-17                      3                                      33196.162452867735             -4.7845007774244485e-05           -1.7998249516555507e-20           1.7083654862517988e-18         2.4608392819698402e-17             22.985322691035321                     22.995792189961314                       22.995792189961314               2                             2                           0                     0.79467003088054378  0.53469849152993809  0.2685182257339731         3.7625321952846294e-16              6.7725579515123327e-16       
                    2.6294283138159784e-17                      4                                      33178.014676350424             -4.779924776724532e-05           -2.2475167790415982e-20           1.7071962499258436e-18         2.458708688823394e-17             22.978053676070605                     22.995792189961314                       22.995792189961314               3                             3                           0                     0.79467291139801799  0.53470022327703903  0.26851926522431496        4.7031652441057867e-16              1.147572319561812e-15       
                    2.6266224515556745e-17                      5                                      33155.33944385629              -4.7742124196693441e-05           -2.8058622603040796e-20           1.7057331779675317e-18         2.456049133758921e-17             22.968969102264349                     22.995792189961314                       22.995792189961314               4                             4                           0                     0.79467650761991737  0.53470238494138045  0.26852056297702909        5.8789565551322338e-16              1.7354679750750354e-15       
                    2.6231206365220267e-17                      6                                      33127.010256557041             -4.767083897900073e-05           -3.5018150336476771e-20           1.7039019569928096e-18         2.4527304408227456e-17             22.957616033319514                     22.995792189961314                       22.995792189961314               5                             5                           0                     0.7946809959933413   0.53470508231075342  0.26852218265535704        7.3486956939152923e-16              2.4703375444665646e-15       
                    2.6187519646316684e-17                      7                                      33091.622035421467             -4.7581918409138355e-05           -4.3686718903582816e-20           1.701609218637832e-18         2.4485910427678852e-17             22.943428835184065                     22.995792189961314                       22.995792189961314               6                             6                           0                     0.79468659569224409  0.53470844667503725  0.26852420333400195        9.1858696173941143e-16              3.3889245062059761e-15       
                    2.6133045246216541e-17                      8                                      33047.423213809394             -4.7471057528451106e-05           -5.4474400100144447e-20           1.6987375115246574e-18         2.4434307734691883e-17             22.925701303305406                     22.995792189961314                       22.995792189961314               7                             7                           0                     0.79469357852915778  0.53471264067651314  0.26852672307135589        1.1482337021742644e-15              4.5371582083802407e-15       
                    2.6065160979893379e-17                      9                                      32992.231854222657             -4.7332932889673836e-05           -6.7884266323159552e-20           1.6951388711880855e-18         2.4370022108705295e-17             22.903551991400136                     22.995792189961314                       22.995792189961314               8                             8                           0                     0.79470228092026218  0.53471786533326104  0.26852986321981831        1.4352921277178304e-15              5.9724503360980709e-15       
                    2.5980630550185097e-17                      10                                     32923.332380284803             -4.7160979776253384e-05           -8.4530429708283925e-20           1.6906265593280809e-18         2.4290003990857016e-17             22.875881137555734                     22.995792189961314                       22.995792189961314               9                             9                           0                     0.79471311818634693  0.53472436837165638  0.26853377357428787        1.7941151596472882e-15              7.7665654957453587e-15       
                    2.5875472756733576e-17                      11                                     32837.349012050254             -4.6947131032129045e-05           -1.051577934515197e-19           1.6849643959265502e-18         2.4190508360807025e-17             22.84131723607166                      22.995792189961314                       22.995792189961314               10                            10                          0                     0.79472660142054963  0.53473245395475666  0.26853863843898823        2.2426439495591101e-15              1.000920944530447e-14       
# Table End
