# ODT 1.0
# Table Start
# Title: mmArchive Data Table, Wed Jun 16 18:47:13 EDT 2010
# Columns: {Oxs_EulerEvolve:evolve:Total energy} {Oxs_EulerEvolve:evolve:Energy calc count} {Oxs_EulerEvolve:evolve:Max dm/dt} Oxs_EulerEvolve:evolve:dE/dt {Oxs_EulerEvolve:evolve:Delta E} Oxs_CubicAnisotropy::Energy Oxs_UniformExchange::Energy {Oxs_UniformExchange::Max Spin Ang} {Oxs_UniformExchange::Stage Max Spin Ang} {Oxs_UniformExchange::Run Max Spin Ang} Oxs_TimeDriver::Iteration {Oxs_TimeDriver::Stage iteration} Oxs_TimeDriver::Stage Oxs_TimeDriver::mx   Oxs_TimeDriver::my   Oxs_TimeDriver::mz   {Oxs_TimeDriver::Last time step} {Oxs_TimeDriver::Simulation time}
# Units:                     J                                       {}                                   deg/ns                           J/s                             J                              J                           J                              deg                                    deg                                      deg                              {}                            {}                          {}                   {}                   {}                   {}                          s                                 s                
                    9.3905366098214189e-20                      1                                      10926.549851196603             -2.1934595001435596e-08            0                             7.2485704282237026e-20         2.141966181597716e-20             18.060306321349607                     18.060306321349607                       18.060306321349607               0                             0                           0                     0.77101693517138814  0.55211471653206168  0.29731206173820074        0                                0                         
                    9.3885315338611397e-20                      2                                      10922.464296416674             -2.1914509158105599e-08           -2.005075960279233e-23           7.2486395490578494e-20         2.13989198480329e-20             18.052796795068115                     18.060306321349607                       18.060306321349607               1                             1                           0                     0.77102501693306003  0.5521193232360857   0.29729917680618972        9.1520197465669976e-16              9.1520197465669976e-16       
                    9.3860282270075847e-20                      3                                      10917.356413705196             -2.1889439299632478e-08           -2.5033068535552892e-23           7.2487247181715947e-20         2.1373035088359903e-20             18.043409585013585                     18.060306321349607                       18.060306321349607               2                             2                           0                     0.77103511671883396  0.5521250755367777   0.2972830609552814         1.1440024683208747e-15              2.0592044429775744e-15       
                    9.3829038321303766e-20                      4                                      10910.970086280846             -2.1858160358831235e-08           -3.1243948772080026e-23           7.2488292569543377e-20         2.1340745751760389e-20             18.031675110804596                     18.060306321349607                       18.060306321349607               3                             3                           0                     0.77104773768431578  0.55213225642827424  0.29726290101114544        1.4300030854010932e-15              3.4892075283786674e-15       
                    9.3790057264944119e-20                      5                                      10902.984861278081             -2.181915265863051e-08           -3.8981056359647093e-23           7.2489569308154388e-20         2.1300487956789734e-20             18.01700631732222                      18.060306321349607                       18.060306321349607               4                             4                           0                     0.7710635080226903   0.5521412177517967   0.29723767744686597        1.7875038567513667e-15              5.2767113851300337e-15       
                    9.374144606512342e-20                      6                                      10892.999687477964             -2.1770534703363286e-08           -4.8611199820694935e-23           7.2491118449692822e-20         2.1250327615430601e-20             17.998669270777665                     18.060306321349607                       18.060306321349607               5                             5                           0                     0.77108321180931116  0.55215239635103774  0.29720611107760214        2.2343798209392082e-15              7.5110912060692419e-15       
                    9.3680861326016683e-20                      7                                      10880.512482073855             -2.1709982686068948e-08           -6.0584739106736337e-23           7.249298195112481e-20         2.1187879374891879e-20             17.975746393042389                     18.060306321349607                       18.060306321349607               6                             6                           0                     0.77110782733143923  0.5521663336846746   0.29716659546643209        2.79297477617401e-15              1.0304065982243253e-14       
                    9.360540930090602e-20                      8                                      10864.894419876444             -2.1634635270510527e-08           -7.5452025110667791e-23           7.2495197716837452e-20         2.1110211584068564e-20             17.947090496360914                     18.060306321349607                       18.060306321349607               7                             7                           0                     0.77113857465409774  0.55218369944488044  0.29711711093121757        3.4912184702175129e-15              1.3795284452460765e-14       
                    9.3511527726847785e-20                      9                                      10845.357521907024             -2.1540982812060424e-08           -9.3881574058229334e-23           7.249779056365238e-20         2.1013737163195411e-20             17.911267330667755                     18.060306321349607                       18.060306321349607               8                             8                           0                     0.77117697454932632  0.55220531970162756  0.29705511471568019        4.3640230877718913e-15              1.8159307540232657e-14       
                    9.3394848535061368e-20                      10                                     10820.913699324685             -2.1424741398730498e-08           -1.1667919178642428e-22           7.2500756567562564e-20         2.0894091967498794e-20             17.866483806401277                     18.060306321349607                       18.060306321349607               9                             9                           0                     0.77122492135754628  0.55223220997306777  0.2969774000649883         5.4550288597148639e-15              2.361433639994752e-14       
                    9.3250042047805015e-20                      11                                     10790.322840682418             -2.1280714261267768e-08           -1.4480648725635173e-22           7.2504036834104529e-20         2.074600521370048e-20             17.810498396578254                     18.060306321349607                       18.060306321349607               10                            10                          0                     0.77128477286115005  0.55226561335259428  0.29687991441431238        6.8187860746435797e-15              3.0433122474591098e-14       
# Table End
