# ODT 1.0
# Table Start
# Title: mmArchive Data Table, Wed Jun 16 18:47:00 EDT 2010
# Columns: {Oxs_EulerEvolve:evolve:Total energy} {Oxs_EulerEvolve:evolve:Energy calc count} {Oxs_EulerEvolve:evolve:Max dm/dt} Oxs_EulerEvolve:evolve:dE/dt {Oxs_EulerEvolve:evolve:Delta E} Oxs_CubicAnisotropy::Energy Oxs_UniformExchange::Energy {Oxs_UniformExchange::Max Spin Ang} {Oxs_UniformExchange::Stage Max Spin Ang} {Oxs_UniformExchange::Run Max Spin Ang} Oxs_TimeDriver::Iteration {Oxs_TimeDriver::Stage iteration} Oxs_TimeDriver::Stage Oxs_TimeDriver::mx   Oxs_TimeDriver::my   Oxs_TimeDriver::mz   {Oxs_TimeDriver::Last time step} {Oxs_TimeDriver::Simulation time}
# Units:                     J                                       {}                                   deg/ns                           J/s                             J                              J                           J                              deg                                    deg                                      deg                              {}                            {}                          {}                   {}                   {}                   {}                          s                                 s                
                    4.5715466678083017e-18                      1                                      37326.577125267751             -8.9632101364440226e-06            0                            -1.6963233119705792e-19         4.7411789990053597e-18             23.832877308341594                     23.832877308341594                       23.832877308341594               0                             0                           0                     0.79533130753047454  0.53242514060583157  0.27011619392287084        0                                0                         
                    4.5691469532624342e-18                      2                                      37315.801592877637             -8.9585256709887272e-06           -2.3997145458673908e-21          -1.698080931519935e-19         4.7389550464144275e-18             23.825805130818598                     23.832877308341594                       23.832877308341594               1                             1                           0                     0.79533292412447765  0.53242626128332371  0.27011634856139088        2.6790562570042427e-16              2.6790562570042427e-16       
                    4.5661493711717646e-18                      3                                      37302.337248531541             -8.9526743091156943e-06           -2.9975820906691367e-21          -1.7002788126136617e-19         4.7361772524331315e-18             23.816968897073448                     23.832877308341594                       23.832877308341594               2                             2                           0                     0.795334943506676    0.53242766117780982  0.27011654138786645        3.3488203212553035e-16              6.0278765782595457e-16       
                    4.5624056112917902e-18                      4                                      37285.514733371943             -8.9453666947993556e-06           -3.7437598799746912e-21          -1.7030275008910948e-19         4.7327083613808995e-18             23.805929833337576                     23.832877308341594                       23.832877308341594               3                             3                           0                     0.79533746561063035  0.53242940955901386  0.27011678168458586        4.1860254015691289e-16              1.0213901979828675e-15       
                    4.557730933838371e-18                      5                                      37264.498940703961             -8.9362424596869565e-06           -4.6746774534189437e-21          -1.7064654470026129e-19         4.7283774785386327e-18             23.792140729654122                     23.832877308341594                       23.832877308341594               4                             4                           0                     0.79534061492543151  0.53243159271455087  0.27011708090610181        5.2325317519614109e-16              1.5446433731790086e-15       
                    4.5518954241544424e-18                      6                                      37238.248466957899             -8.9248532111763113e-06           -5.8355096839286663e-21          -1.710766132480628e-19         4.7229720374025056e-18             23.774919535265735                     23.832877308341594                       23.832877308341594               5                             5                           0                     0.79534454639543417  0.53243431803698393  0.27011745313943197        6.5406646899517643e-16              2.1987098421741849e-15       
                    4.5446132623632374e-18                      7                                      37205.46541778672              -8.9106416795799406e-06           -7.2821617912053648e-21          -1.7161470598361878e-19         4.7162279683468558e-18             23.753416746457322                     23.832877308341594                       23.832877308341594               6                             6                           0                     0.79534945266184853  0.53243771903949222  0.27011791563322657        8.1758308624397054e-16              3.0162929284181554e-15       
                    4.5355296227879938e-18                      8                                      37164.533428459603             -8.8929162913595739e-06           -9.0836395752436219e-21          -1.7228811181503387e-19         4.7078177346030274e-18             23.726575253860311                     23.832877308341594                       23.832877308341594               7                             7                           0                     0.79535557290816761  0.53244196148087219  0.27011848938772465        1.0219788578049631e-15              4.0382717862231191e-15       
                    4.5242047819863527e-18                      9                                      37113.441368504115             -8.8708203756550323e-06           -1.1324840801640785e-20          -1.7313109874004489e-19         4.697335880726398e-18             23.693081103718207                     23.832877308341594                       23.832877308341594               8                             8                           0                     0.7953632035968593   0.5324472507977529   0.27011919978144977        1.2774735722562039e-15              5.3157453584793228e-15       
                    4.5100950013397413e-18                      10                                     37049.68979064803              -8.843295202054719e-06           -1.410978064661198e-20          -1.7418674470898763e-19         4.6842817460487288e-18             23.651303427626431                     23.832877308341594                       23.832877308341594               9                             9                           0                     0.79537271139525656  0.53245384104845117  0.27012007718342435        1.596841965320255e-15              6.9125873237995772e-15       
                    4.4925297821980253e-18                      11                                     36970.176786596647             -8.8090361344275304e-06           -1.7565219141715625e-20          -1.7550927258096941e-19         4.6680390547789946e-18             23.59922164570094                      23.832877308341594                       23.832877308341594               10                            10                          0                     0.79538454856954055  0.5324620455585829   0.27012115745467646        1.9960524566503188e-15              8.9086397804498956e-15       
# Table End
