# ODT 1.0
# Table Start
# Title: mmArchive Data Table, Wed Jun 16 18:47:53 EDT 2010
# Columns: {Oxs_RungeKuttaEvolve:evolve:Total energy} {Oxs_RungeKuttaEvolve:evolve:Energy calc count} {Oxs_RungeKuttaEvolve:evolve:Max dm/dt} Oxs_RungeKuttaEvolve:evolve:dE/dt {Oxs_RungeKuttaEvolve:evolve:Delta E} Oxs_CubicAnisotropy::Energy Oxs_UniformExchange::Energy {Oxs_UniformExchange::Max Spin Ang} {Oxs_UniformExchange::Stage Max Spin Ang} {Oxs_UniformExchange::Run Max Spin Ang} Oxs_UZeeman::Energy  Oxs_UZeeman::B       Oxs_UZeeman::Bx      Oxs_UZeeman::By      Oxs_UZeeman::Bz      Oxs_Demag::Energy    Oxs_TimeDriver::Iteration {Oxs_TimeDriver::Stage iteration} Oxs_TimeDriver::Stage Oxs_TimeDriver::mx   Oxs_TimeDriver::my   Oxs_TimeDriver::mz   {Oxs_TimeDriver::Last time step} {Oxs_TimeDriver::Simulation time}
# Units:                       J                                            {}                                        deg/ns                                 J/s                                  J                                J                           J                              deg                                    deg                                      deg                            J                 mT                   mT                   mT                   mT                     J                       {}                            {}                          {}                   {}                   {}                   {}                          s                                 s                
                       1.334277934149468e-19                          1                                           1567.1868106267109                  -3.6164565722941669e-10                 0                               -1.4285714285714287e-21         0                               0                                      0                                        0                              0                    0                    0                    0                    0                    1.3485636484351822e-19    0                             0                           0                    -0.89087080637474791 -0.44543540318737396 -0.089087080637474794        0                                0                         
                       1.3342561028576422e-19                          7                                           1547.9815715883724                  -3.5865253265596693e-10                -2.1831291825803232e-24             -1.4285871274032709e-21         2.273471949072763e-26             0.0057799395558010402                    0.0057799395558010402                      0.0057799395558010402            0                    0                    0                    0                    0                    1.3485417467844799e-19    1                             1                           0                    -0.89087005023521693 -0.44543092292969688 -0.089117016096162752        6.0618172227987247e-15              6.0618172227987247e-15       
# Table End
