# ODT 1.0
# Table Start
# Title: mmArchive Data Table, Wed Jun 16 18:47:17 EDT 2010
# Columns: {Oxs_RungeKuttaEvolve:evolve:Total energy} {Oxs_RungeKuttaEvolve:evolve:Energy calc count} {Oxs_RungeKuttaEvolve:evolve:Max dm/dt} Oxs_RungeKuttaEvolve:evolve:dE/dt {Oxs_RungeKuttaEvolve:evolve:Delta E} Oxs_CubicAnisotropy::Energy Oxs_UniformExchange::Energy {Oxs_UniformExchange::Max Spin Ang} {Oxs_UniformExchange::Stage Max Spin Ang} {Oxs_UniformExchange::Run Max Spin Ang} Oxs_UZeeman::Energy  Oxs_UZeeman::B       Oxs_UZeeman::Bx      Oxs_UZeeman::By      Oxs_UZeeman::Bz      Oxs_Demag::Energy    Oxs_TimeDriver::Iteration {Oxs_TimeDriver::Stage iteration} Oxs_TimeDriver::Stage Oxs_TimeDriver::mx   Oxs_TimeDriver::my   Oxs_TimeDriver::mz   {Oxs_TimeDriver::Last time step} {Oxs_TimeDriver::Simulation time}
# Units:                       J                                            {}                                        deg/ns                                 J/s                                  J                                J                           J                              deg                                    deg                                      deg                            J                 mT                   mT                   mT                   mT                     J                       {}                            {}                          {}                   {}                   {}                   {}                          s                                 s                
                       4.5197652513394077e-22                          1                                           646.94871365078632                  -1.0869431327585797e-12                 0                               -4.4642857142857149e-24         0                               0                                      0                                        0                              0                    0                    0                    0                    0                    4.564408108482265e-22    0                             0                           0                    -0.89087080637474791 -0.44543540318737396 -0.089087080637474794        0                                0                         
                       4.5196056188774192e-22                          7                                           647.03905233666376                  -1.0872467112893272e-12                -1.5963246198857461e-26             -4.4652463417001614e-24         0                               0                                      0                                        0                              0                    0                    0                    0                    0                    4.5642580822944206e-22    1                             1                           0                    -0.89084243083378378 -0.4454598158773399  -0.08924861827883665        1.4684317009289184e-14              1.4684317009289184e-14       
# Table End
