# ODT 1.0
# Table Start
# Title: mmArchive Data Table, Wed Jun 16 18:47:17 EDT 2010
# Columns: {Oxs_RungeKuttaEvolve:evolve:Total energy} {Oxs_RungeKuttaEvolve:evolve:Energy calc count} {Oxs_RungeKuttaEvolve:evolve:Max dm/dt} Oxs_RungeKuttaEvolve:evolve:dE/dt {Oxs_RungeKuttaEvolve:evolve:Delta E} Oxs_CubicAnisotropy::Energy Oxs_UniformExchange::Energy {Oxs_UniformExchange::Max Spin Ang} {Oxs_UniformExchange::Stage Max Spin Ang} {Oxs_UniformExchange::Run Max Spin Ang} Oxs_UZeeman::Energy  Oxs_UZeeman::B       Oxs_UZeeman::Bx      Oxs_UZeeman::By      Oxs_UZeeman::Bz      Oxs_DemagOld::Energy Oxs_TimeDriver::Iteration {Oxs_TimeDriver::Stage iteration} Oxs_TimeDriver::Stage Oxs_TimeDriver::mx   Oxs_TimeDriver::my   Oxs_TimeDriver::mz   {Oxs_TimeDriver::Last time step} {Oxs_TimeDriver::Simulation time}
# Units:                       J                                            {}                                        deg/ns                                 J/s                                  J                                J                           J                              deg                                    deg                                      deg                            J                 mT                   mT                   mT                   mT                      J                      {}                            {}                          {}                   {}                   {}                   {}                          s                                 s                
                       8.9008237920754281e-21                          1                                           1070.4527764203617                  -2.5849048259640472e-11                 0                               -1.0714285714285715e-22         0                               0                                      0                                        0                              0                    0                    0                    0                    0                    9.0079666492182855e-21    0                             0                           0                    -0.89087080637474791 -0.44543540318737396 -0.089087080637474794        0                                0                         
                       8.9005975663248348e-21                          7                                           1049.8243360464505                  -2.5138747071405788e-11                -2.2622575059340527e-25             -1.0715177132676463e-22         7.8712271723025295e-27             0.010670979842201844                    0.010670979842201844                      0.010670979842201844            0                    0                    0                    0                    0                    9.0077414664244284e-21    1                             1                           0                    -0.89085955526160554 -0.44544713371739364 -0.08914088405491466        8.8747492736376406e-15              8.8747492736376406e-15       
# Table End
