# ODT 1.0
# Table Start
# Title: mmArchive Data Table, Wed Jun 16 18:48:05 EDT 2010
# Columns: {Oxs_RungeKuttaEvolve:evolve:Total energy} {Oxs_RungeKuttaEvolve:evolve:Energy calc count} {Oxs_RungeKuttaEvolve:evolve:Max dm/dt} Oxs_RungeKuttaEvolve:evolve:dE/dt {Oxs_RungeKuttaEvolve:evolve:Delta E} Oxs_CubicAnisotropy::Energy Oxs_UniformExchange::Energy {Oxs_UniformExchange::Max Spin Ang} {Oxs_UniformExchange::Stage Max Spin Ang} {Oxs_UniformExchange::Run Max Spin Ang} Oxs_UZeeman::Energy  Oxs_UZeeman::B       Oxs_UZeeman::Bx      Oxs_UZeeman::By      Oxs_UZeeman::Bz      Oxs_Demag::Energy    Oxs_TimeDriver::Iteration {Oxs_TimeDriver::Stage iteration} Oxs_TimeDriver::Stage Oxs_TimeDriver::mx   Oxs_TimeDriver::my   Oxs_TimeDriver::mz   {Oxs_TimeDriver::Last time step} {Oxs_TimeDriver::Simulation time}
# Units:                       J                                            {}                                        deg/ns                                 J/s                                  J                                J                           J                              deg                                    deg                                      deg                            J                 mT                   mT                   mT                   mT                     J                       {}                            {}                          {}                   {}                   {}                   {}                          s                                 s                
                       8.8045569905394557e-18                          1                                           2028.4492908181512                  -1.2600189578016153e-07                 0                               -7.342857142857144e-20         0                               0                                      0                                        0                              0                    0                    0                    0                    0                    8.8779855619680272e-18    0                             0                           0                    -0.89087080637474803 -0.44543540318737401 -0.08908708063747478        0                                0                         
                       8.8039669585146627e-18                          7                                           2030.8704909439398                  -1.2596661247698646e-07                -5.9003202479444892e-22             -7.3445180791246636e-20         3.0571998489909095e-25             0.004632098067955474                    0.004632098067955474                      0.004632098067955474            0                    0                    0                    0                    0                    8.8774118335859238e-18    1                             1                           0                    -0.89083952313498227 -0.44547305889877703 -0.089211523875688953        4.6833805720468794e-15              4.6833805720468794e-15       
# Table End
