# ODT 1.0
# Table Start
# Title: mmArchive Data Table, Wed Jun 16 18:49:47 EDT 2010
# Columns: {Oxs_CGEvolve:evolve:Max mxHxm} {Oxs_CGEvolve:evolve:Total energy} {Oxs_CGEvolve:evolve:Delta E} {Oxs_CGEvolve:evolve:Bracket count} {Oxs_CGEvolve:evolve:Line min count} {Oxs_CGEvolve:evolve:Cycle count} {Oxs_CGEvolve:evolve:Cycle sub count} {Oxs_CGEvolve:evolve:Energy calc count} Oxs_Demag::Energy    Oxs_MinDriver::Iteration {Oxs_MinDriver::Stage iteration} Oxs_MinDriver::Stage Oxs_MinDriver::mx    Oxs_MinDriver::my    Oxs_MinDriver::mz    {Oxs_MinDriver::Max Spin Ang} {Oxs_MinDriver::Stage Max Spin Ang} {Oxs_MinDriver::Run Max Spin Ang} Oxs_Demag::R0x       Oxs_Demag::R0y       Oxs_Demag::R0z       Oxs_Demag::R1x       Oxs_Demag::R1y       Oxs_Demag::R1z       Oxs_Demag::R0x-xMs0  Oxs_Demag::R0x-xMs1  Oxs_Demag::R0x-norm0 Oxs_Demag::R0x-norm1
# Units:                 A/m                               J                                J                               {}                                   {}                                 {}                                  {}                                     {}                            J                       {}                           {}                         {}                 {}                   {}                   {}                         deg                              deg                                deg                     A/m                  A/m                  A/m                  A/m                  A/m                  A/m                     A/m                  A/m                  A/m                  A/m         
                 0                                 1.6003538237636077e-20             1.6003538237636077e-20              0                                    0                                  1                                   1                                      1                              1.6003538237636077e-20    0                            0                          0                   -1                    0                    0                        90                               90                                 90                         -143.88231820846403  -206.35179124765949  -127.9338189790077    0.048968846822560586 -0.1523463103328295  -0.17270368300859187 -143.88231820846403   0                   -0.00071941159104232011 -143.88231820846403 
# Table End
