# ODT 1.0
# Table Start
# Title: mmArchive Data Table, Wed Jun 16 18:48:18 EDT 2010
# Columns: {Oxs_RungeKuttaEvolve:evolve:Total energy} {Oxs_RungeKuttaEvolve:evolve:Energy calc count} {Oxs_RungeKuttaEvolve:evolve:Max dm/dt} Oxs_RungeKuttaEvolve:evolve:dE/dt {Oxs_RungeKuttaEvolve:evolve:Delta E} Oxs_CubicAnisotropy::Energy Oxs_UniformExchange::Energy {Oxs_UniformExchange::Max Spin Ang} {Oxs_UniformExchange::Stage Max Spin Ang} {Oxs_UniformExchange::Run Max Spin Ang} Oxs_UZeeman::Energy  Oxs_UZeeman::B       Oxs_UZeeman::Bx      Oxs_UZeeman::By      Oxs_UZeeman::Bz      Oxs_Demag::Energy    Oxs_TimeDriver::Iteration {Oxs_TimeDriver::Stage iteration} Oxs_TimeDriver::Stage Oxs_TimeDriver::mx   Oxs_TimeDriver::my   Oxs_TimeDriver::mz   {Oxs_TimeDriver::Last time step} {Oxs_TimeDriver::Simulation time}
# Units:                       J                                            {}                                        deg/ns                                 J/s                                  J                                J                           J                              deg                                    deg                                      deg                            J                 mT                   mT                   mT                   mT                     J                       {}                            {}                          {}                   {}                   {}                   {}                          s                                 s                
                       5.417168757777122e-19                          1                                           1780.2296490671195                  -2.3371796608260487e-09                 0                               -4.8571428571428579e-21         0                               0                                      0                                        0                              0                    0                    0                    0                    0                    5.4657401863485501e-19    0                             0                           0                    -0.89087080637474791 -0.44543540318737396 -0.089087080637474794        0                                0                         
                       5.4170441974536436e-19                          7                                           1774.5407897488574                  -2.3311716720360237e-09                -1.2456032347809577e-23             -4.8574882108889524e-21         4.147018384470092e-26             0.005160726947357407                    0.005160726947357407                      0.005160726947357407            0                    0                    0                    0                    0                    5.4656186648606949e-19    1                             1                           0                    -0.89086180273695503 -0.44544039374994759 -0.089152123982767145        5.3363901702110249e-15              5.3363901702110249e-15       
# Table End
