# ODT 1.0
# Table Start
# Title: mmArchive Data Table, Wed Jun 16 18:48:34 EDT 2010
# Columns: {Oxs_RungeKuttaEvolve:evolve:Total energy} {Oxs_RungeKuttaEvolve:evolve:Energy calc count} {Oxs_RungeKuttaEvolve:evolve:Max dm/dt} Oxs_RungeKuttaEvolve:evolve:dE/dt {Oxs_RungeKuttaEvolve:evolve:Delta E} Oxs_CubicAnisotropy::Energy Oxs_UniformExchange::Energy {Oxs_UniformExchange::Max Spin Ang} {Oxs_UniformExchange::Stage Max Spin Ang} {Oxs_UniformExchange::Run Max Spin Ang} Oxs_UZeeman::Energy  Oxs_UZeeman::B       Oxs_UZeeman::Bx      Oxs_UZeeman::By      Oxs_UZeeman::Bz      Oxs_Demag::Energy    Oxs_TimeDriver::Iteration {Oxs_TimeDriver::Stage iteration} Oxs_TimeDriver::Stage Oxs_TimeDriver::mx   Oxs_TimeDriver::my   Oxs_TimeDriver::mz   {Oxs_TimeDriver::Last time step} {Oxs_TimeDriver::Simulation time}
# Units:                       J                                            {}                                        deg/ns                                 J/s                                  J                                J                           J                              deg                                    deg                                      deg                            J                 mT                   mT                   mT                   mT                     J                       {}                            {}                          {}                   {}                   {}                   {}                          s                                 s                
                       1.7868363460289372e-17                          1                                           1784.6108325390419                  -7.1796307996671672e-08                 0                               -1.4657142857142858e-19         0                               0                                      0                                        0                              0                    0                    0                    0                    0                    1.8014934888860799e-17    0                             0                           0                    -0.8908708063747478  -0.4454354031873739  -0.08908708063747478        0                                0                         
                       1.7867981646677074e-17                          7                                           1778.9116105852031                  -7.1654315017331067e-08                -3.8181361229922561e-22             -1.4658060940055931e-19         1.0127459336640679e-24             0.0051478615913554361                    0.0051478615913554361                      0.0051478615913554361            0                    0                    0                    0                    0                    1.8014561243331698e-17    1                             1                           0                    -0.89086330848196182 -0.44543622259061716 -0.089157921794613182        5.3232894403559939e-15              5.3232894403559939e-15       
# Table End
