# ODT 1.0
# Table Start
# Title: mmArchive Data Table, Wed Jun 16 18:48:26 EDT 2010
# Columns: {Oxs_RungeKuttaEvolve:evolve:Total energy} {Oxs_RungeKuttaEvolve:evolve:Energy calc count} {Oxs_RungeKuttaEvolve:evolve:Max dm/dt} Oxs_RungeKuttaEvolve:evolve:dE/dt {Oxs_RungeKuttaEvolve:evolve:Delta E} Oxs_CubicAnisotropy::Energy Oxs_UniformExchange::Energy {Oxs_UniformExchange::Max Spin Ang} {Oxs_UniformExchange::Stage Max Spin Ang} {Oxs_UniformExchange::Run Max Spin Ang} Oxs_UZeeman::Energy  Oxs_UZeeman::B       Oxs_UZeeman::Bx      Oxs_UZeeman::By      Oxs_UZeeman::Bz      Oxs_Demag::Energy    Oxs_TimeDriver::Iteration {Oxs_TimeDriver::Stage iteration} Oxs_TimeDriver::Stage Oxs_TimeDriver::mx   Oxs_TimeDriver::my   Oxs_TimeDriver::mz   {Oxs_TimeDriver::Last time step} {Oxs_TimeDriver::Simulation time}
# Units:                       J                                            {}                                        deg/ns                                 J/s                                  J                                J                           J                              deg                                    deg                                      deg                            J                 mT                   mT                   mT                   mT                     J                       {}                            {}                          {}                   {}                   {}                   {}                          s                                 s                
                       8.8888285109775087e-18                          1                                           1784.6026741524668                  -3.5801519610673883e-08                 0                               -7.3142857142857153e-20         0                               0                                      0                                        0                              0                    0                    0                    0                    0                    8.9619713681203661e-18    0                             0                           0                    -0.89087080637474803 -0.44543540318737401 -0.08908708063747478        0                                0                         
                       8.8886381191566329e-18                          7                                           1778.9034784631372                  -3.5729982029993487e-08                -1.9039182087618944e-22             -7.3147462243031873e-20         5.0939905841884009e-25             0.0051478850434832617                    0.0051478850434832617                      0.0051478850434832617            0                    0                    0                    0                    0                    8.9617850720006067e-18    1                             1                           0                    -0.8908632512950182  -0.4454363794358539  -0.0891577094682348         5.3233137759987305e-15              5.3233137759987305e-15       
# Table End
