# ODT 1.0
# Table Start
# Title: mmArchive Data Table, Wed Jun 16 18:48:25 EDT 2010
# Columns: {Oxs_RungeKuttaEvolve:evolve:Total energy} {Oxs_RungeKuttaEvolve:evolve:Energy calc count} {Oxs_RungeKuttaEvolve:evolve:Max dm/dt} Oxs_RungeKuttaEvolve:evolve:dE/dt {Oxs_RungeKuttaEvolve:evolve:Delta E} Oxs_CubicAnisotropy::Energy Oxs_UniformExchange::Energy {Oxs_UniformExchange::Max Spin Ang} {Oxs_UniformExchange::Stage Max Spin Ang} {Oxs_UniformExchange::Run Max Spin Ang} Oxs_UZeeman::Energy  Oxs_UZeeman::B       Oxs_UZeeman::Bx      Oxs_UZeeman::By      Oxs_UZeeman::Bz      Oxs_Demag::Energy    Oxs_TimeDriver::Iteration {Oxs_TimeDriver::Stage iteration} Oxs_TimeDriver::Stage Oxs_TimeDriver::mx   Oxs_TimeDriver::my   Oxs_TimeDriver::mz   {Oxs_TimeDriver::Last time step} {Oxs_TimeDriver::Simulation time}
# Units:                       J                                            {}                                        deg/ns                                 J/s                                  J                                J                           J                              deg                                    deg                                      deg                            J                 mT                   mT                   mT                   mT                     J                       {}                            {}                          {}                   {}                   {}                   {}                          s                                 s                
                       8.8538891996025655e-18                          1                                           1784.6025872093765                  -3.5661463431982094e-08                 0                               -7.2857142857142867e-20         0                               0                                      0                                        0                              0                    0                    0                    0                    0                    8.9267463424597087e-18    0                             0                           0                    -0.89087080637474803 -0.44543540318737401 -0.08908708063747478        0                                0                         
                       8.8536995526038525e-18                          7                                           1778.9033917979009                  -3.5590199998210432e-08                -1.896469987134243e-22             -7.2861730152201009e-20         5.0744052357034929e-25             0.0051478852934573856                    0.0051478852934573856                      0.0051478852934573856            0                    0                    0                    0                    0                    8.9265607753155297e-18    1                             1                           0                    -0.89086325084901186 -0.4454363806597183  -0.089157707809210854        5.3233140353423816e-15              5.3233140353423816e-15       
# Table End
