# ODT 1.0
# Table Start
# Title: mmArchive Data Table, Wed Jun 16 18:47:36 EDT 2010
# Columns: {Oxs_RungeKuttaEvolve:evolve:Total energy} {Oxs_RungeKuttaEvolve:evolve:Energy calc count} {Oxs_RungeKuttaEvolve:evolve:Max dm/dt} Oxs_RungeKuttaEvolve:evolve:dE/dt {Oxs_RungeKuttaEvolve:evolve:Delta E} Oxs_CubicAnisotropy::Energy Oxs_UniformExchange::Energy {Oxs_UniformExchange::Max Spin Ang} {Oxs_UniformExchange::Stage Max Spin Ang} {Oxs_UniformExchange::Run Max Spin Ang} Oxs_UZeeman::Energy  Oxs_UZeeman::B       Oxs_UZeeman::Bx      Oxs_UZeeman::By      Oxs_UZeeman::Bz      Oxs_Demag::Energy    Oxs_TimeDriver::Iteration {Oxs_TimeDriver::Stage iteration} Oxs_TimeDriver::Stage Oxs_TimeDriver::mx   Oxs_TimeDriver::my   Oxs_TimeDriver::mz   {Oxs_TimeDriver::Last time step} {Oxs_TimeDriver::Simulation time}
# Units:                       J                                            {}                                        deg/ns                                 J/s                                  J                                J                           J                              deg                                    deg                                      deg                            J                 mT                   mT                   mT                   mT                     J                       {}                            {}                          {}                   {}                   {}                   {}                          s                                 s                
                       7.9065938421089309e-19                          1                                           1985.1408473452811                  -1.161959377751139e-08                 0                               -1.8571428571428575e-20         0                               0                                      0                                        0                              0                    0                    0                    0                    0                    8.0923081278232166e-19    0                             0                           0                    -0.89087080637474803 -0.44543540318737401 -0.089087080637474808        0                                0                         
                       7.9060379609341218e-19                          7                                           1989.9400829832437                  -1.1612044533528387e-08                -5.5588117480947363e-23             -1.8569140160510134e-20         3.7836018718831728e-26             0.0047708804329065933                    0.0047708804329065933                      0.0047708804329065933            0                    0                    0                    0                    0                    8.0917289841790359e-19    1                             1                           0                    -0.89088792847999698 -0.44541420001677184 -0.089021833339786027        4.7855546434925773e-15              4.7855546434925773e-15       
# Table End
