# ODT 1.0
# Table Start
# Title: mmArchive Data Table, Wed Jun 16 18:48:59 EDT 2010
# Columns: {Oxs_CGEvolve:evolve:Max mxHxm} {Oxs_CGEvolve:evolve:Total energy} {Oxs_CGEvolve:evolve:Delta E} {Oxs_CGEvolve:evolve:Bracket count} {Oxs_CGEvolve:evolve:Line min count} {Oxs_CGEvolve:evolve:Cycle count} {Oxs_CGEvolve:evolve:Cycle sub count} {Oxs_CGEvolve:evolve:Energy calc count} Oxs_UniformExchange::Energy {Oxs_UniformExchange::Max Spin Ang} {Oxs_UniformExchange::Stage Max Spin Ang} {Oxs_UniformExchange::Run Max Spin Ang} Oxs_UniaxialAnisotropy::Energy Oxs_DemagOld::Energy Oxs_UZeeman::Energy  Oxs_UZeeman::B       Oxs_UZeeman::Bx      Oxs_UZeeman::By      Oxs_UZeeman::Bz      Oxs_MinDriver::Iteration {Oxs_MinDriver::Stage iteration} Oxs_MinDriver::Stage Oxs_MinDriver::mx    Oxs_MinDriver::my    Oxs_MinDriver::mz   
# Units:                 A/m                               J                                J                               {}                                   {}                                 {}                                  {}                                     {}                                 J                              deg                                    deg                                      deg                                 J                         J                    J                 mT                   mT                   mT                   mT                        {}                           {}                         {}                 {}                   {}                   {}           
                 253391.72499622349               -3.0361106672274785e-16            -3.0361106672274785e-16              0                                    0                                  1                                   1                                      1                                 0                               0                                      0                                        0                                   4.9504950495049508e-20       1.2495226298685138e-16 -4.2861283466009429e-16  50.007616402258023   50.000000000000007   0.87275325000000015  0                      0                            0                          0                    0.99503719020998849  0.099503719020998888  0                  
                 252606.25374534164               -3.0363148079519215e-16            -2.0414072444267783e-20              1                                    0                                  1                                   1                                      2                                 2.0141268225154131e-23             0.030990957665470595                    0.030990957665470595                      0.030990957665470595                 4.9485407807997524e-20       1.2493254518090923e-16 -4.2861353152517759e-16  50.007616402258023   50.000000000000007   0.87275325000000015  0                      1                            1                          0                    0.99503915421658173  0.099484046214288829  6.4144426204723795e-26
                 247102.75893845974               -3.0377258099281368e-16            -1.4110019762153299e-19              2                                    0                                  1                                   1                                      3                                 1.2890106937274572e-21             0.24792341791734293                    0.24792341791734293                      0.24792341791734293                 4.9350410068235802e-20       1.2479511097517685e-16 -4.286183313887525e-16  50.007616402258023   50.000000000000007   0.87275325000000015  0                      2                            2                          0                    0.99505272073876083  0.099346318354261859  1.871887657798229e-25
                 202885.89482350901               -3.0478751663492963e-16            -1.0149356421159759e-18              3                                    0                                  1                                   1                                      4                                 8.2372128944211008e-20             1.9812179748178573                     1.9812179748178573                       1.9812179748178573                  4.8383675395389045e-20       1.2373353813562768e-16 -4.2865181057489692e-16  50.007616402258023   50.000000000000007   0.87275325000000015  0                      3                            3                          0                    0.99514983217610242  0.09824332246667114 -1.6575887949054663e-23
                 161353.82546538123               -3.0642244904746052e-16            -1.634932412530901e-18              4                                    0                                  1                                   1                                      5                                 8.0995814396206553e-19             6.193480376995292                      6.193480376995292                        6.193480376995292                   4.6844476835546379e-20       1.2141823621456689e-16 -4.2869748788282503e-16  50.007616402258023   50.000000000000007   0.87275325000000015  0                      4                            4                          0                    0.99530368662639501  0.095514707432274054  4.5854792831029721e-23
                 159941.34238580841               -3.0643156785630485e-16            -9.1188088442865922e-21              5                                    0                                  2                                   0                                      6                                 8.1057919539278514e-19             6.1762277732146798                     6.193480376995292                        6.193480376995292                   4.6824718806587066e-20       1.2140916133979127e-16 -4.2869813311029547e-16  50.007616402258023   50.000000000000007   0.87275325000000015  0                      5                            5                          0                    0.99530566467588533  0.095487350301879659 -6.9195295488265577e-24
                 150151.99350468759               -3.0649430413815022e-16            -6.2736281845412719e-20              6                                    0                                  2                                   0                                      7                                 8.1581248591974601e-19             6.0554702134411267                     6.193480376995292                        6.193480376995292                   4.6687661374828821e-20       1.2134579064953048e-16 -4.287025949349753e-16  50.007616402258023   50.000000000000007   0.87275325000000015  0                      6                            6                          0                    0.99531938388023256  0.095295837529935826  4.5131856908017993e-23
                 117648.96615241801               -3.069271546956662e-16            -4.3285055751594983e-19              7                                    0                                  2                                   0                                      8                                 9.1343223302278747e-19             7.730903710714748                      7.730903710714748                        7.730903710714748                   4.5669673121947111e-20       1.2084858730809577e-16 -4.2873484390990667e-16  50.007616402258023   50.000000000000007   0.87275325000000015  0                      7                            7                          0                    0.99542113873331883  0.093762916457074061 -2.0758588646479672e-23
                 300517.6785205967                -3.0747215213614245e-16            -5.4499744047627011e-19              8                                    0                                  2                                   0                                      9                                 1.5733079276492241e-18             13.223421713658212                     13.223421713658212                       13.223421713658212                  4.3748863577232695e-20       1.1969916207343831e-16 -4.2878837100080723e-16  50.007616402258023   50.000000000000007   0.87275325000000015  0                      8                            8                          0                    0.99561169627805324  0.089977428520533073  4.6784281874901943e-23
                 297565.20843053475               -3.0748428897922857e-16            -1.2136843086097704e-20              9                                    0                                  3                                   0                                      10                                1.5655303246374368e-18             13.160225368472323                     13.223421713658212                       13.223421713658212                  4.3739851194009455e-20       1.1969510542383982e-16 -4.2878866457889984e-16  50.007616402258023   50.000000000000007   0.87275325000000015  0                      9                            9                          0                    0.99561259460709683  0.089965077418240127  7.229359230117298e-23
                 276910.58298114769               -3.0756561956667509e-16            -8.13305874465518e-20              10                                   0                                  3                                   0                                      11                                1.5145079410905297e-18             12.717853163915917                     13.223421713658212                       13.223421713658212                  4.367763726705348e-20       1.1966687561102461e-16 -4.287906807560573e-16  50.007616402258023   50.000000000000007   0.87275325000000015  0                      10                           10                         0                    0.99561879272602305  0.089878607683577513  7.0950997015579767e-23
# Table End
