# ODT 1.0
# Table Start
# Title: mmArchive Data Table, Wed Jun 16 18:47:58 EDT 2010
# Columns: {Oxs_RungeKuttaEvolve:evolve:Total energy} {Oxs_RungeKuttaEvolve:evolve:Energy calc count} {Oxs_RungeKuttaEvolve:evolve:Max dm/dt} Oxs_RungeKuttaEvolve:evolve:dE/dt {Oxs_RungeKuttaEvolve:evolve:Delta E} Oxs_CubicAnisotropy::Energy Oxs_UniformExchange::Energy {Oxs_UniformExchange::Max Spin Ang} {Oxs_UniformExchange::Stage Max Spin Ang} {Oxs_UniformExchange::Run Max Spin Ang} Oxs_UZeeman::Energy  Oxs_UZeeman::B       Oxs_UZeeman::Bx      Oxs_UZeeman::By      Oxs_UZeeman::Bz      Oxs_Demag::Energy    Oxs_TimeDriver::Iteration {Oxs_TimeDriver::Stage iteration} Oxs_TimeDriver::Stage Oxs_TimeDriver::mx   Oxs_TimeDriver::my   Oxs_TimeDriver::mz   {Oxs_TimeDriver::Last time step} {Oxs_TimeDriver::Simulation time}
# Units:                       J                                            {}                                        deg/ns                                 J/s                                  J                                J                           J                              deg                                    deg                                      deg                            J                 mT                   mT                   mT                   mT                     J                       {}                            {}                          {}                   {}                   {}                   {}                          s                                 s                
                       2.1867540436071441e-18                          1                                           2013.7711028807444                  -2.8378879994848799e-08                 0                               -1.8571428571428575e-20         0                               0                                      0                                        0                              0                    0                    0                    0                    0                    2.2053254721785726e-18    0                             0                           0                    -0.89087080637474803 -0.44543540318737401 -0.089087080637474808        0                                0                         
                       2.1866201917255447e-18                          7                                           2016.0852102572403                  -2.8367890945665336e-08                -1.3385188159943514e-22             -1.8575294473868773e-20         8.6140427924334227e-26             0.0046653293485566637                    0.0046653293485566637                      0.0046653293485566637            0                    0                    0                    0                    0                    2.2051954000589853e-18    1                             1                           0                    -0.89084207606455457 -0.44546957144347948 -0.089203442530852967        4.7175172920149849e-15              4.7175172920149849e-15       
# Table End
