# ODT 1.0
# Table Start
# Title: mmArchive Data Table, Wed Jun 16 18:48:14 EDT 2010
# Columns: {Oxs_RungeKuttaEvolve:evolve:Total energy} {Oxs_RungeKuttaEvolve:evolve:Energy calc count} {Oxs_RungeKuttaEvolve:evolve:Max dm/dt} Oxs_RungeKuttaEvolve:evolve:dE/dt {Oxs_RungeKuttaEvolve:evolve:Delta E} Oxs_CubicAnisotropy::Energy Oxs_UniformExchange::Energy {Oxs_UniformExchange::Max Spin Ang} {Oxs_UniformExchange::Stage Max Spin Ang} {Oxs_UniformExchange::Run Max Spin Ang} Oxs_UZeeman::Energy  Oxs_UZeeman::B       Oxs_UZeeman::Bx      Oxs_UZeeman::By      Oxs_UZeeman::Bz      Oxs_Demag::Energy    Oxs_TimeDriver::Iteration {Oxs_TimeDriver::Stage iteration} Oxs_TimeDriver::Stage Oxs_TimeDriver::mx   Oxs_TimeDriver::my   Oxs_TimeDriver::mz   {Oxs_TimeDriver::Last time step} {Oxs_TimeDriver::Simulation time}
# Units:                       J                                            {}                                        deg/ns                                 J/s                                  J                                J                           J                              deg                                    deg                                      deg                            J                 mT                   mT                   mT                   mT                     J                       {}                            {}                          {}                   {}                   {}                   {}                          s                                 s                
                       3.5245307113849074e-17                          1                                           2029.456640795175                   -5.1664531844700345e-07                 0                               -2.9257142857142861e-19         0                               0                                      0                                        0                              0                    0                    0                    0                    0                    3.5537878542420504e-17    0                             0                           0                    -0.89087080637474758 -0.44543540318737379 -0.089087080637474836        0                                0                         
                       3.524288897889835e-17                          7                                           2031.8843947028192                  -5.1651288248689167e-07                -2.4181349507255868e-21             -2.9263907592202431e-19         1.1866508805865845e-24             0.0046298128247982857                    0.0046298128247982857                      0.0046298128247982857            0                    0                    0                    0                    0                    3.5535526868169492e-17    1                             1                           0                    -0.89083881350620653 -0.44547402216020288 -0.089213800751753794        4.6810559087765189e-15              4.6810559087765189e-15       
# Table End
