# ODT 1.0
# Table Start
# Title: mmArchive Data Table, Wed Jun 16 18:48:18 EDT 2010
# Columns: {Oxs_RungeKuttaEvolve:evolve:Total energy} {Oxs_RungeKuttaEvolve:evolve:Energy calc count} {Oxs_RungeKuttaEvolve:evolve:Max dm/dt} Oxs_RungeKuttaEvolve:evolve:dE/dt {Oxs_RungeKuttaEvolve:evolve:Delta E} Oxs_CubicAnisotropy::Energy Oxs_UniformExchange::Energy {Oxs_UniformExchange::Max Spin Ang} {Oxs_UniformExchange::Stage Max Spin Ang} {Oxs_UniformExchange::Run Max Spin Ang} Oxs_UZeeman::Energy  Oxs_UZeeman::B       Oxs_UZeeman::Bx      Oxs_UZeeman::By      Oxs_UZeeman::Bz      Oxs_Demag::Energy    Oxs_TimeDriver::Iteration {Oxs_TimeDriver::Stage iteration} Oxs_TimeDriver::Stage Oxs_TimeDriver::mx   Oxs_TimeDriver::my   Oxs_TimeDriver::mz   {Oxs_TimeDriver::Last time step} {Oxs_TimeDriver::Simulation time}
# Units:                       J                                            {}                                        deg/ns                                 J/s                                  J                                J                           J                              deg                                    deg                                      deg                            J                 mT                   mT                   mT                   mT                     J                       {}                            {}                          {}                   {}                   {}                   {}                          s                                 s                
                       1.0640114610010604e-18                          1                                           1783.6523284319537                  -4.4333156934375242e-09                 0                               -9.1428571428571442e-21         0                               0                                      0                                        0                              0                    0                    0                    0                    0                    1.0731543181439173e-18    0                             0                           0                    -0.89087080637474803 -0.44543540318737401 -0.089087080637474794        0                                0                         
                       1.0639878755274223e-18                          7                                           1777.9557594772557                  -4.4231909015934764e-09                -2.3585473638003728e-23             -9.1434717555767232e-21         7.0747012445879502e-26             0.0051506373132194075                    0.0051506373132194075                      0.0051506373132194075            0                    0                    0                    0                    0                    1.0731312765359865e-18    1                             1                           0                    -0.89086249434339415 -0.44543846909738749 -0.089154831020660921        5.3261500846141074e-15              5.3261500846141074e-15       
# Table End
