# ODT 1.0
# Table Start
# Title: mmArchive Data Table, Wed Jun 16 18:47:29 EDT 2010
# Columns: {Oxs_RungeKuttaEvolve:evolve:Total energy} {Oxs_RungeKuttaEvolve:evolve:Energy calc count} {Oxs_RungeKuttaEvolve:evolve:Max dm/dt} Oxs_RungeKuttaEvolve:evolve:dE/dt {Oxs_RungeKuttaEvolve:evolve:Delta E} Oxs_CubicAnisotropy::Energy Oxs_UniformExchange::Energy {Oxs_UniformExchange::Max Spin Ang} {Oxs_UniformExchange::Stage Max Spin Ang} {Oxs_UniformExchange::Run Max Spin Ang} Oxs_UZeeman::Energy  Oxs_UZeeman::B       Oxs_UZeeman::Bx      Oxs_UZeeman::By      Oxs_UZeeman::Bz      Oxs_DemagOld::Energy Oxs_TimeDriver::Iteration {Oxs_TimeDriver::Stage iteration} Oxs_TimeDriver::Stage Oxs_TimeDriver::mx   Oxs_TimeDriver::my   Oxs_TimeDriver::mz   {Oxs_TimeDriver::Last time step} {Oxs_TimeDriver::Simulation time}
# Units:                       J                                            {}                                        deg/ns                                 J/s                                  J                                J                           J                              deg                                    deg                                      deg                            J                 mT                   mT                   mT                   mT                      J                      {}                            {}                          {}                   {}                   {}                   {}                          s                                 s                
                       4.4784034353058567e-19                          1                                           914.10584558421431                  -1.1048595940532863e-08                 0                               -8.0357142857142863e-20         0                               0                                      0                                        0                              0                    0                    0                    0                    0                    5.2819748638772858e-19    0                             0                           0                    -0.89087080637474803 -0.44543540318737401 -0.08908708063747478        0                                0                         
                       4.4772558635241662e-19                          7                                           913.01910753243089                  -1.1035695980742283e-08                -1.1475717816913222e-22             -8.0372989862891845e-20         7.5649233724852601e-26             0.007566144888316818                    0.007566144888316818                      0.007566144888316818            0                    0                    0                    0                    0                    5.2809850056607469e-19    1                             1                           0                    -0.89083904541256376 -0.44550524196912611 -0.089055452731479731        1.0392669564352751e-14              1.0392669564352751e-14       
# Table End
