# ODT 1.0
# Table Start
# Title: mmArchive Data Table, Wed Jun 16 18:47:55 EDT 2010
# Columns: {Oxs_RungeKuttaEvolve:evolve:Total energy} {Oxs_RungeKuttaEvolve:evolve:Energy calc count} {Oxs_RungeKuttaEvolve:evolve:Max dm/dt} Oxs_RungeKuttaEvolve:evolve:dE/dt {Oxs_RungeKuttaEvolve:evolve:Delta E} Oxs_CubicAnisotropy::Energy Oxs_UniformExchange::Energy {Oxs_UniformExchange::Max Spin Ang} {Oxs_UniformExchange::Stage Max Spin Ang} {Oxs_UniformExchange::Run Max Spin Ang} Oxs_UZeeman::Energy  Oxs_UZeeman::B       Oxs_UZeeman::Bx      Oxs_UZeeman::By      Oxs_UZeeman::Bz      Oxs_Demag::Energy    Oxs_TimeDriver::Iteration {Oxs_TimeDriver::Stage iteration} Oxs_TimeDriver::Stage Oxs_TimeDriver::mx   Oxs_TimeDriver::my   Oxs_TimeDriver::mz   {Oxs_TimeDriver::Last time step} {Oxs_TimeDriver::Simulation time}
# Units:                       J                                            {}                                        deg/ns                                 J/s                                  J                                J                           J                              deg                                    deg                                      deg                            J                 mT                   mT                   mT                   mT                     J                       {}                            {}                          {}                   {}                   {}                   {}                          s                                 s                
                       5.3602725429090852e-19                          1                                           1900.6948622929365                  -4.6618101893538634e-09                 0                               -4.8571428571428579e-21         0                               0                                      0                                        0                              0                    0                    0                    0                    0                    5.4088439714805143e-19    0                             0                           0                    -0.89087080637474791 -0.44543540318737396 -0.089087080637474794        0                                0                         
                       5.3600396607022151e-19                          7                                           1900.7227176011556                  -4.6568952109449491e-09                -2.3288220686995326e-23             -4.8578813721057649e-21         3.3551103861338555e-26             0.0049219572442803748                    0.0049219572442803748                      0.0049219572442803748            0                    0                    0                    0                    0                    5.4086181389122343e-19    1                             1                           0                    -0.890850037502666   -0.44545857575875014 -0.089178836070891956        4.9981720835187126e-15              4.9981720835187126e-15       
# Table End
