# ODT 1.0
# Table Start
# Title: mmArchive Data Table, Wed Jun 16 18:48:16 EDT 2010
# Columns: {Oxs_RungeKuttaEvolve:evolve:Total energy} {Oxs_RungeKuttaEvolve:evolve:Energy calc count} {Oxs_RungeKuttaEvolve:evolve:Max dm/dt} Oxs_RungeKuttaEvolve:evolve:dE/dt {Oxs_RungeKuttaEvolve:evolve:Delta E} Oxs_CubicAnisotropy::Energy Oxs_UniformExchange::Energy {Oxs_UniformExchange::Max Spin Ang} {Oxs_UniformExchange::Stage Max Spin Ang} {Oxs_UniformExchange::Run Max Spin Ang} Oxs_UZeeman::Energy  Oxs_UZeeman::B       Oxs_UZeeman::Bx      Oxs_UZeeman::By      Oxs_UZeeman::Bz      Oxs_Demag::Energy    Oxs_TimeDriver::Iteration {Oxs_TimeDriver::Stage iteration} Oxs_TimeDriver::Stage Oxs_TimeDriver::mx   Oxs_TimeDriver::my   Oxs_TimeDriver::mz   {Oxs_TimeDriver::Last time step} {Oxs_TimeDriver::Simulation time}
# Units:                       J                                            {}                                        deg/ns                                 J/s                                  J                                J                           J                              deg                                    deg                                      deg                            J                 mT                   mT                   mT                   mT                     J                       {}                            {}                          {}                   {}                   {}                   {}                          s                                 s                
                       4.7234461316651332e-19                          1                                           1778.6353510087945                  -2.0582228354389428e-09                 0                               -4.2857142857142862e-21         0                               0                                      0                                        0                              0                    0                    0                    0                    0                    4.7663032745222758e-19    0                             0                           0                    -0.89087080637474791 -0.44543540318737396 -0.089087080637474794        0                                0                         
                       4.7233363445389969e-19                          7                                           1772.949635744948                   -2.0527646162843929e-09                -1.0978712613598122e-23             -4.2860234656824077e-21         3.75875495639819e-26             0.0051654886074617009                    0.0051654886074617009                      0.0051654886074617009            0                    0                    0                    0                    0                    4.7661962033203258e-19    1                             1                           0                    -0.89086161724040491 -0.44544091055653973 -0.08915139492286292        5.3411734983294089e-15              5.3411734983294089e-15       
# Table End
