# ODT 1.0
# Table Start
# Title: mmArchive Data Table, Wed Jun 16 18:49:28 EDT 2010
# Columns: {Oxs_CGEvolve:evolve:Max mxHxm} {Oxs_CGEvolve:evolve:Total energy} {Oxs_CGEvolve:evolve:Delta E} {Oxs_CGEvolve:evolve:Bracket count} {Oxs_CGEvolve:evolve:Line min count} {Oxs_CGEvolve:evolve:Cycle count} {Oxs_CGEvolve:evolve:Cycle sub count} {Oxs_CGEvolve:evolve:Energy calc count} Oxs_DemagOld::Energy Oxs_MinDriver::Iteration {Oxs_MinDriver::Stage iteration} Oxs_MinDriver::Stage Oxs_MinDriver::mx    Oxs_MinDriver::my    Oxs_MinDriver::mz    {Oxs_MinDriver::Max Spin Ang} {Oxs_MinDriver::Stage Max Spin Ang} {Oxs_MinDriver::Run Max Spin Ang}
# Units:                 A/m                               J                                J                               {}                                   {}                                 {}                                  {}                                     {}                             J                      {}                           {}                         {}                 {}                   {}                   {}                         deg                              deg                                deg               
                 0                                 1.6003538237636077e-20             1.6003538237636077e-20              0                                    0                                  1                                   1                                      1                              1.6003538237636077e-20    0                            0                          0                   -1                    0                    0                        90                               90                                 90                        
# Table End
