# ODT 1.0
# Table Start
# Title: mmArchive Data Table, Wed Jun 16 18:48:27 EDT 2010
# Columns: {Oxs_RungeKuttaEvolve:evolve:Total energy} {Oxs_RungeKuttaEvolve:evolve:Energy calc count} {Oxs_RungeKuttaEvolve:evolve:Max dm/dt} Oxs_RungeKuttaEvolve:evolve:dE/dt {Oxs_RungeKuttaEvolve:evolve:Delta E} Oxs_CubicAnisotropy::Energy Oxs_UniformExchange::Energy {Oxs_UniformExchange::Max Spin Ang} {Oxs_UniformExchange::Stage Max Spin Ang} {Oxs_UniformExchange::Run Max Spin Ang} Oxs_UZeeman::Energy  Oxs_UZeeman::B       Oxs_UZeeman::Bx      Oxs_UZeeman::By      Oxs_UZeeman::Bz      Oxs_Demag::Energy    Oxs_TimeDriver::Iteration {Oxs_TimeDriver::Stage iteration} Oxs_TimeDriver::Stage Oxs_TimeDriver::mx   Oxs_TimeDriver::my   Oxs_TimeDriver::mz   {Oxs_TimeDriver::Last time step} {Oxs_TimeDriver::Simulation time}
# Units:                       J                                            {}                                        deg/ns                                 J/s                                  J                                J                           J                              deg                                    deg                                      deg                            J                 mT                   mT                   mT                   mT                     J                       {}                            {}                          {}                   {}                   {}                   {}                          s                                 s                
                       8.9237678302950718e-18                          1                                           1784.6027600555799                  -3.5941575810549047e-08                 0                               -7.342857142857144e-20         0                               0                                      0                                        0                              0                    0                    0                    0                    0                    8.9971964017236433e-18    0                             0                           0                    -0.89087080637474803 -0.44543540318737401 -0.08908708063747478        0                                0                         
                       8.9235766936518822e-18                          7                                           1778.9035640916843                  -3.5869764082981171e-08                -1.9113664319058838e-22             -7.3433194333851556e-20         5.1135759347951838e-25             0.0051478847965166965                    0.0051478847965166965                      0.0051478847965166965            0                    0                    0                    0                    0                    8.9970093766281402e-18    1                             1                           0                    -0.89086325173757885 -0.44543637822145388 -0.08915771111439505        5.3233135197572654e-15              5.3233135197572654e-15       
# Table End
