# ODT 1.0
# Table Start
# Title: mmArchive Data Table, Wed Jun 16 18:47:18 EDT 2010
# Columns: {Oxs_RungeKuttaEvolve:evolve:Total energy} {Oxs_RungeKuttaEvolve:evolve:Energy calc count} {Oxs_RungeKuttaEvolve:evolve:Max dm/dt} Oxs_RungeKuttaEvolve:evolve:dE/dt {Oxs_RungeKuttaEvolve:evolve:Delta E} Oxs_CubicAnisotropy::Energy Oxs_UniformExchange::Energy {Oxs_UniformExchange::Max Spin Ang} {Oxs_UniformExchange::Stage Max Spin Ang} {Oxs_UniformExchange::Run Max Spin Ang} Oxs_UZeeman::Energy  Oxs_UZeeman::B       Oxs_UZeeman::Bx      Oxs_UZeeman::By      Oxs_UZeeman::Bz      Oxs_Demag::Energy    Oxs_TimeDriver::Iteration {Oxs_TimeDriver::Stage iteration} Oxs_TimeDriver::Stage Oxs_TimeDriver::mx   Oxs_TimeDriver::my   Oxs_TimeDriver::mz   {Oxs_TimeDriver::Last time step} {Oxs_TimeDriver::Simulation time}
# Units:                       J                                            {}                                        deg/ns                                 J/s                                  J                                J                           J                              deg                                    deg                                      deg                            J                 mT                   mT                   mT                   mT                     J                       {}                            {}                          {}                   {}                   {}                   {}                          s                                 s                
                       6.9681000902402442e-22                          1                                           82.572671950146912                  -3.5413576342846665e-14                 0                               -8.9285714285714298e-24         0                               0                                      0                                        0                              0                    0                    0                    0                    0                    7.0573858045259588e-22    0                             0                           0                    -0.89087080637474791 -0.44543540318737396 -0.089087080637474794        0                                0                         
                       6.9680592981598482e-22                          7                                           82.671348322403404                  -3.5498267104480938e-14                -4.0792080396430436e-27             -8.9269554170433119e-24         0                               0                                      0                                        0                              0                    0                    0                    0                    0                    7.0573288523302811e-22    1                             1                           0                    -0.89090331713746485 -0.44534350174095461 -0.08922132576108785        1.1505017066343215e-13              1.1505017066343215e-13       
# Table End
