# ODT 1.0
# Table Start
# Title: mmArchive Data Table, Wed Jun 16 18:49:06 EDT 2010
# Columns: {Oxs_CGEvolve:evolve:Max mxHxm} {Oxs_CGEvolve:evolve:Total energy} {Oxs_CGEvolve:evolve:Delta E} {Oxs_CGEvolve:evolve:Bracket count} {Oxs_CGEvolve:evolve:Line min count} {Oxs_CGEvolve:evolve:Cycle count} {Oxs_CGEvolve:evolve:Cycle sub count} {Oxs_CGEvolve:evolve:Energy calc count} Oxs_UniformExchange::Energy {Oxs_UniformExchange::Max Spin Ang} {Oxs_UniformExchange::Stage Max Spin Ang} {Oxs_UniformExchange::Run Max Spin Ang} Oxs_UniaxialAnisotropy::Energy Oxs_Demag::Energy    Oxs_UZeeman::Energy  Oxs_UZeeman::B       Oxs_UZeeman::Bx      Oxs_UZeeman::By      Oxs_UZeeman::Bz      Oxs_MinDriver::Iteration {Oxs_MinDriver::Stage iteration} Oxs_MinDriver::Stage Oxs_MinDriver::mx    Oxs_MinDriver::my    Oxs_MinDriver::mz   
# Units:                 A/m                               J                                J                               {}                                   {}                                 {}                                  {}                                     {}                                 J                              deg                                    deg                                      deg                                 J                        J                     J                 mT                   mT                   mT                   mT                        {}                           {}                         {}                 {}                   {}                   {}           
                 250996.66895769766               -5.4824547319549101e-17            -5.4824547319549101e-17              0                                    0                                  1                                   1                                      1                                 0                               0                                      0                                        0                                   1.2376237623762377e-20       5.2316285107850711e-17 -1.0715320866502357e-16  50.007616402258023   50.000000000000007   0.87275325000000015  0                      0                            0                          0                    0.99503719020998893  0.099503719020998901  0                  
                 250203.14504356173               -5.4834868775670668e-17            -1.0321456121566754e-20              1                                    0                                  1                                   1                                      2                                 1.012130229797044e-23             0.0312212110456348                     0.0312212110456348                       0.0312212110456348                  1.2369910712412662e-20       5.2306185419556871e-17 -1.0715343422724225e-16  50.007616402258023   50.000000000000007   0.87275325000000015  0                      1                            1                          0                    0.99503973357623443  0.099478218511643554 -5.1961019466468084e-25
                 244643.36977822776               -5.4906214453519707e-17            -7.1345677849040437e-20              2                                    0                                  1                                   1                                      3                                 6.4774752433830008e-22             0.24976535334234234                    0.24976535334234234                      0.24976535334234234                 1.2326541381058859e-20       5.2235784508996986e-17 -1.0715497325142209e-16  50.007616402258023   50.000000000000007   0.87275325000000015  0                      2                            2                          0                    0.99505716652025999  0.09929967778280796 -1.0456751743562522e-24
                 199982.4838068203                -5.5419691774072189e-17            -5.134773205524795e-19              3                                    0                                  1                                   1                                      4                                 4.1391169734677102e-20             1.9959066672721579                     1.9959066672721579                       1.9959066672721579                  1.2037375851545983e-20       5.1691653990483809e-17 -1.0716477431014223e-16  50.007616402258023   50.000000000000007   0.87275325000000015  0                      3                            3                          0                    0.99517331228317174  0.097868968492711761  2.1688077690351897e-24
                 158670.05749753481               -5.6249065267474529e-17            -8.2937349340233922e-19              4                                    0                                  1                                   1                                      5                                 4.0681286313686477e-19             6.2385307989079699                     6.2385307989079699                       6.2385307989079699                  1.1755035095894316e-20       5.0502498243640996e-17 -1.0717013140934828e-16  50.007616402258023   50.000000000000007   0.87275325000000015  0                      4                            4                          0                    0.99528504143317564  0.094322968004178387 -7.7250867201824843e-23
                 157213.81612227985               -5.6253877568109283e-17            -4.8123006347534088e-21              5                                    0                                  2                                   0                                      6                                 4.0702468181039774e-19             6.2203248666166502                     6.2385307989079699                       6.2385307989079699                  1.1750314692968763e-20       5.049761628295841e-17 -1.0717026884757105e-16  50.007616402258023   50.000000000000007   0.87275325000000015  0                      5                            5                          0                    0.99528692255671203  0.094288443444069905  6.1965936258148272e-24
                 147123.4206743539                -5.6286974093240715e-17            -3.3096525131436947e-20              6                                    0                                  2                                   0                                      7                                 4.0898878092319173e-19             6.092897429400943                      6.2385307989079699                       6.2385307989079699                  1.1717940928691187e-20       5.0463520724433303e-17 -1.0717120153952591e-16  50.007616402258023   50.000000000000007   0.87275325000000015  0                      6                            6                          0                    0.99529981763811515  0.094046744133757076 -1.2393187251629655e-22
                 114429.86815968358               -5.6514563543794037e-17            -2.2758945055331438e-19              7                                    0                                  2                                   0                                      8                                 4.5499582720576531e-19             7.801714872064478                      7.801714872064478                        7.801714872064478                   1.1500961734787151e-20       5.0195755418845261e-17 -1.0717681575157985e-16  50.007616402258023   50.000000000000007   0.87275325000000015  0                      7                            7                          0                    0.9953858242171103   0.092111411862788331  1.0079792297992119e-22
                 307209.48934240302               -5.6794293385008836e-17            -2.7972984121480897e-19              8                                    0                                  2                                   0                                      9                                 7.958591414383954e-19             13.368617919873977                     13.368617919873977                       13.368617919873977                  1.1280019590263986e-20       4.9575333359872271e-17 -1.0717676590590977e-16  50.007616402258023   50.000000000000007   0.87275325000000015  0                      8                            8                          0                    0.99546887544195894  0.087326846150746526  2.6645352591003756e-22
                 304219.48651663627               -5.6800674405384625e-17            -6.3810203757850133e-21              9                                    0                                  3                                   0                                      10                                7.9171358725043812e-19             13.304660486331533                     13.368617919873977                       13.368617919873977                  1.1278125430864625e-20       4.9573153100582952e-17 -1.0717681921864888e-16  50.007616402258023   50.000000000000007   0.87275325000000015  0                      9                            9                          0                    0.99546962052549048  0.087312572295293642  4.0608343561173165e-22
                 283299.13182901742               -5.684344553678728e-17            -4.2771131402655939e-20              10                                   0                                  3                                   0                                      11                                7.6448266709937592e-19             12.85705751130766                      13.368617919873977                       13.368617919873977                  1.1265313367155618e-20       4.9557978931975677e-17 -1.0717717244922949e-16  50.007616402258023   50.000000000000007   0.87275325000000015  0                      10                           10                         0                    0.99547465087093223  0.08721263112775221  1.0782072908917799e-22
# Table End
