# ODT 1.0
# Table Start
# Title: mmArchive Data Table, Wed Jun 16 18:47:36 EDT 2010
# Columns: {Oxs_RungeKuttaEvolve:evolve:Total energy} {Oxs_RungeKuttaEvolve:evolve:Energy calc count} {Oxs_RungeKuttaEvolve:evolve:Max dm/dt} Oxs_RungeKuttaEvolve:evolve:dE/dt {Oxs_RungeKuttaEvolve:evolve:Delta E} Oxs_CubicAnisotropy::Energy Oxs_UniformExchange::Energy {Oxs_UniformExchange::Max Spin Ang} {Oxs_UniformExchange::Stage Max Spin Ang} {Oxs_UniformExchange::Run Max Spin Ang} Oxs_UZeeman::Energy  Oxs_UZeeman::B       Oxs_UZeeman::Bx      Oxs_UZeeman::By      Oxs_UZeeman::Bz      Oxs_Demag::Energy    Oxs_TimeDriver::Iteration {Oxs_TimeDriver::Stage iteration} Oxs_TimeDriver::Stage Oxs_TimeDriver::mx   Oxs_TimeDriver::my   Oxs_TimeDriver::mz   {Oxs_TimeDriver::Last time step} {Oxs_TimeDriver::Simulation time}
# Units:                       J                                            {}                                        deg/ns                                 J/s                                  J                                J                           J                              deg                                    deg                                      deg                            J                 mT                   mT                   mT                   mT                     J                       {}                            {}                          {}                   {}                   {}                   {}                          s                                 s                
                       7.83123502410572e-19                          1                                           1985.0898979970034                  -1.1349123577844289e-08                 0                               -1.8285714285714288e-20         0                               0                                      0                                        0                              0                    0                    0                    0                    0                    8.0140921669628624e-19    0                             0                           0                    -0.89087080637474803 -0.44543540318737401 -0.089087080637474808        0                                0                         
                       7.8306920706704198e-19                          7                                           1989.8819595514224                  -1.1341650565152743e-08                -5.4295343530013817e-23             -1.8283475849465302e-20         3.7606464171339062e-26             0.004770722835608073                    0.004770722835608073                      0.004770722835608073            0                    0                    0                    0                    0                    8.0135264531004315e-19    1                             1                           0                    -0.89088781850439536 -0.44541432038819356 -0.089022331574184821        4.7856774696126833e-15              4.7856774696126833e-15       
# Table End
