# ODT 1.0
# Table Start
# Title: mmArchive Data Table, Wed Jun 16 18:47:21 EDT 2010
# Columns: {Oxs_RungeKuttaEvolve:evolve:Total energy} {Oxs_RungeKuttaEvolve:evolve:Energy calc count} {Oxs_RungeKuttaEvolve:evolve:Max dm/dt} Oxs_RungeKuttaEvolve:evolve:dE/dt {Oxs_RungeKuttaEvolve:evolve:Delta E} Oxs_CubicAnisotropy::Energy Oxs_UniformExchange::Energy {Oxs_UniformExchange::Max Spin Ang} {Oxs_UniformExchange::Stage Max Spin Ang} {Oxs_UniformExchange::Run Max Spin Ang} Oxs_UZeeman::Energy  Oxs_UZeeman::B       Oxs_UZeeman::Bx      Oxs_UZeeman::By      Oxs_UZeeman::Bz      Oxs_Demag::Energy    Oxs_TimeDriver::Iteration {Oxs_TimeDriver::Stage iteration} Oxs_TimeDriver::Stage Oxs_TimeDriver::mx   Oxs_TimeDriver::my   Oxs_TimeDriver::mz   {Oxs_TimeDriver::Last time step} {Oxs_TimeDriver::Simulation time}
# Units:                       J                                            {}                                        deg/ns                                 J/s                                  J                                J                           J                              deg                                    deg                                      deg                            J                 mT                   mT                   mT                   mT                     J                       {}                            {}                          {}                   {}                   {}                   {}                          s                                 s                
                       2.1812153171588644e-21                          1                                           1208.7006869357201                  -1.4619150079771137e-11                 0                               -1.785714285714286e-23         0                               0                                      0                                        0                              0                    0                    0                    0                    0                    2.1990724600160074e-21    0                             0                           0                    -0.89087080637474791 -0.44543540318737396 -0.089087080637474794        0                                0                         
                       2.1811004064643042e-21                          7                                           1210.0491896651006                  -1.4621410064398263e-11                -1.1491069456009901e-25             -1.786127293743619e-23         1.0506686134782108e-29             0.00094042292667291993                    0.00094042292667291993                      0.00094042292667291993            0                    0                    0                    0                    0                    2.1989616688950544e-21    1                             1                           0                    -0.89083975980563168 -0.44546615683051577 -0.089243629468686206        7.8596794911106215e-15              7.8596794911106215e-15       
# Table End
