# ODT 1.0
# Table Start
# Title: mmArchive Data Table, Wed Jun 16 18:48:11 EDT 2010
# Columns: {Oxs_RungeKuttaEvolve:evolve:Total energy} {Oxs_RungeKuttaEvolve:evolve:Energy calc count} {Oxs_RungeKuttaEvolve:evolve:Max dm/dt} Oxs_RungeKuttaEvolve:evolve:dE/dt {Oxs_RungeKuttaEvolve:evolve:Delta E} Oxs_CubicAnisotropy::Energy Oxs_UniformExchange::Energy {Oxs_UniformExchange::Max Spin Ang} {Oxs_UniformExchange::Stage Max Spin Ang} {Oxs_UniformExchange::Run Max Spin Ang} Oxs_UZeeman::Energy  Oxs_UZeeman::B       Oxs_UZeeman::Bx      Oxs_UZeeman::By      Oxs_UZeeman::Bz      Oxs_Demag::Energy    Oxs_TimeDriver::Iteration {Oxs_TimeDriver::Stage iteration} Oxs_TimeDriver::Stage Oxs_TimeDriver::mx   Oxs_TimeDriver::my   Oxs_TimeDriver::mz   {Oxs_TimeDriver::Last time step} {Oxs_TimeDriver::Simulation time}
# Units:                       J                                            {}                                        deg/ns                                 J/s                                  J                                J                           J                              deg                                    deg                                      deg                            J                 mT                   mT                   mT                   mT                     J                       {}                            {}                          {}                   {}                   {}                   {}                          s                                 s                
                       1.7629540992760275e-17                          1                                           2029.2538342421608                  -2.5637194373550811e-07                 0                               -1.4657142857142858e-19         0                               0                                      0                                        0                              0                    0                    0                    0                    0                    1.7776112421331706e-17    0                             0                           0                    -0.8908708063747478  -0.4454354031873739  -0.08908708063747478        0                                0                         
                       1.7628340940263012e-17                          7                                           2031.680276523153                   -2.5630423587468264e-07                -1.2000524972637657e-21             -1.4660506946294341e-19         5.9966439562895225e-25             0.004630273348584144                    0.004630273348584144                      0.004630273348584144            0                    0                    0                    0                    0                    1.7774945410061559e-17    1                             1                           0                    -0.89083905351327075 -0.44547369664711051 -0.089213029303130895        4.6815237402509782e-15              4.6815237402509782e-15       
# Table End
