# ODT 1.0
# Table Start
# Title: mmArchive Data Table, Wed Jun 16 18:47:16 EDT 2010
# Columns: {Oxs_RungeKuttaEvolve:evolve:Total energy} {Oxs_RungeKuttaEvolve:evolve:Energy calc count} {Oxs_RungeKuttaEvolve:evolve:Max dm/dt} Oxs_RungeKuttaEvolve:evolve:dE/dt {Oxs_RungeKuttaEvolve:evolve:Delta E} Oxs_CubicAnisotropy::Energy Oxs_UniformExchange::Energy {Oxs_UniformExchange::Max Spin Ang} {Oxs_UniformExchange::Stage Max Spin Ang} {Oxs_UniformExchange::Run Max Spin Ang} Oxs_UZeeman::Energy  Oxs_UZeeman::B       Oxs_UZeeman::Bx      Oxs_UZeeman::By      Oxs_UZeeman::Bz      Oxs_DemagOld::Energy Oxs_TimeDriver::Iteration {Oxs_TimeDriver::Stage iteration} Oxs_TimeDriver::Stage Oxs_TimeDriver::mx   Oxs_TimeDriver::my   Oxs_TimeDriver::mz   {Oxs_TimeDriver::Last time step} {Oxs_TimeDriver::Simulation time}
# Units:                       J                                            {}                                        deg/ns                                 J/s                                  J                                J                           J                              deg                                    deg                                      deg                            J                 mT                   mT                   mT                   mT                      J                      {}                            {}                          {}                   {}                   {}                   {}                          s                                 s                
                       1.2643819907789242e-20                          1                                           1401.1923915233237                  -7.1771729342837229e-11                 0                               -1.0714285714285715e-22         0                               0                                      0                                        0                              0                    0                    0                    0                    0                    1.27509627649321e-20    0                             0                           0                    -0.89087080637474791 -0.44543540318737396 -0.089087080637474794        0                                0                         
                       1.2643334808737834e-20                          7                                           1395.9053223917133                  -7.1331503298299846e-11                -4.8509905140809653e-25             -1.0715986362964052e-22         3.8339256833228512e-27             0.0051880520294539968                    0.0051880520294539968                      0.0051880520294539968            0                    0                    0                    0                    0                    1.2750490838441791e-20    1                             1                           0                    -0.89084974995768396 -0.44545444290577019 -0.089202356003090164        6.7799397552194504e-15              6.7799397552194504e-15       
# Table End
