# ODT 1.0
# Table Start
# Title: mmArchive Data Table, Wed Jun 16 18:48:02 EDT 2010
# Columns: {Oxs_RungeKuttaEvolve:evolve:Total energy} {Oxs_RungeKuttaEvolve:evolve:Energy calc count} {Oxs_RungeKuttaEvolve:evolve:Max dm/dt} Oxs_RungeKuttaEvolve:evolve:dE/dt {Oxs_RungeKuttaEvolve:evolve:Delta E} Oxs_CubicAnisotropy::Energy Oxs_UniformExchange::Energy {Oxs_UniformExchange::Max Spin Ang} {Oxs_UniformExchange::Stage Max Spin Ang} {Oxs_UniformExchange::Run Max Spin Ang} Oxs_UZeeman::Energy  Oxs_UZeeman::B       Oxs_UZeeman::Bx      Oxs_UZeeman::By      Oxs_UZeeman::Bz      Oxs_Demag::Energy    Oxs_TimeDriver::Iteration {Oxs_TimeDriver::Stage iteration} Oxs_TimeDriver::Stage Oxs_TimeDriver::mx   Oxs_TimeDriver::my   Oxs_TimeDriver::mz   {Oxs_TimeDriver::Last time step} {Oxs_TimeDriver::Simulation time}
# Units:                       J                                            {}                                        deg/ns                                 J/s                                  J                                J                           J                              deg                                    deg                                      deg                            J                 mT                   mT                   mT                   mT                     J                       {}                            {}                          {}                   {}                   {}                   {}                          s                                 s                
                       8.7356132340798995e-18                          1                                           2028.4324360509102                  -1.2498360702887181e-07                 0                               -7.2857142857142867e-20         0                               0                                      0                                        0                              0                    0                    0                    0                    0                    8.8084703769370427e-18    0                             0                           0                    -0.89087080637474803 -0.44543540318737401 -0.08908708063747478        0                                0                         
                       8.7350279656312936e-18                          7                                           2030.8535256872049                  -1.2494857701020552e-07                -5.852684486060925e-22             -7.2873619212414282e-20         3.0342486515751275e-25             0.0046321362721121421                    0.0046321362721121421                      0.0046321362721121421            0                    0                    0                    0                    0                    8.8079012814188435e-18    1                             1                           0                    -0.89083953041746355 -0.44547304900036483 -0.089211500574491134        4.6834194874615805e-15              4.6834194874615805e-15       
# Table End
