# ODT 1.0
# Table Start
# Title: mmArchive Data Table, Wed Jun 16 18:47:39 EDT 2010
# Columns: {Oxs_RungeKuttaEvolve:evolve:Total energy} {Oxs_RungeKuttaEvolve:evolve:Energy calc count} {Oxs_RungeKuttaEvolve:evolve:Max dm/dt} Oxs_RungeKuttaEvolve:evolve:dE/dt {Oxs_RungeKuttaEvolve:evolve:Delta E} Oxs_CubicAnisotropy::Energy Oxs_UniformExchange::Energy {Oxs_UniformExchange::Max Spin Ang} {Oxs_UniformExchange::Stage Max Spin Ang} {Oxs_UniformExchange::Run Max Spin Ang} Oxs_UZeeman::Energy  Oxs_UZeeman::B       Oxs_UZeeman::Bx      Oxs_UZeeman::By      Oxs_UZeeman::Bz      Oxs_Demag::Energy    Oxs_TimeDriver::Iteration {Oxs_TimeDriver::Stage iteration} Oxs_TimeDriver::Stage Oxs_TimeDriver::mx   Oxs_TimeDriver::my   Oxs_TimeDriver::mz   {Oxs_TimeDriver::Last time step} {Oxs_TimeDriver::Simulation time}
# Units:                       J                                            {}                                        deg/ns                                 J/s                                  J                                J                           J                              deg                                    deg                                      deg                            J                 mT                   mT                   mT                   mT                     J                       {}                            {}                          {}                   {}                   {}                   {}                          s                                 s                
                       1.2545451882690215e-18                          1                                           1984.8660986786253                  -2.9840773848072349e-08                 0                               -3.6857142857142863e-20         0                               0                                      0                                        0                              0                    0                    0                    0                    0                    1.2914023311261643e-18    0                             0                           0                    -0.89087080637474791 -0.44543540318737396 -0.089087080637474794        0                                0                         
                       1.2544023940567874e-18                          7                                           1989.8402235389538                  -2.9828160311882262e-08                -1.4279421223396414e-22             -3.68515967842528e-20         5.2253274721598324e-26             0.0047771769119389022                    0.0047771769119389022                      0.0047771769119389022            0                    0                    0                    0                    0                    1.2912539385877655e-18    1                             1                           0                    -0.89089163891221235 -0.44541014244297017 -0.089005004487408265        4.7862170684079829e-15              4.7862170684079829e-15       
# Table End
