# ODT 1.0
# Table Start
# Title: mmArchive Data Table, Wed Jun 16 18:48:29 EDT 2010
# Columns: {Oxs_RungeKuttaEvolve:evolve:Total energy} {Oxs_RungeKuttaEvolve:evolve:Energy calc count} {Oxs_RungeKuttaEvolve:evolve:Max dm/dt} Oxs_RungeKuttaEvolve:evolve:dE/dt {Oxs_RungeKuttaEvolve:evolve:Delta E} Oxs_CubicAnisotropy::Energy Oxs_UniformExchange::Energy {Oxs_UniformExchange::Max Spin Ang} {Oxs_UniformExchange::Stage Max Spin Ang} {Oxs_UniformExchange::Run Max Spin Ang} Oxs_UZeeman::Energy  Oxs_UZeeman::B       Oxs_UZeeman::Bx      Oxs_UZeeman::By      Oxs_UZeeman::Bz      Oxs_Demag::Energy    Oxs_TimeDriver::Iteration {Oxs_TimeDriver::Stage iteration} Oxs_TimeDriver::Stage Oxs_TimeDriver::mx   Oxs_TimeDriver::my   Oxs_TimeDriver::mz   {Oxs_TimeDriver::Last time step} {Oxs_TimeDriver::Simulation time}
# Units:                       J                                            {}                                        deg/ns                                 J/s                                  J                                J                           J                              deg                                    deg                                      deg                            J                 mT                   mT                   mT                   mT                     J                       {}                            {}                          {}                   {}                   {}                   {}                          s                                 s                
                       1.779848330448142e-17                          1                                           1784.6108118016521                  -7.1516191572189279e-08                 0                               -1.4600000000000001e-19         0                               0                                      0                                        0                              0                    0                    0                    0                    0                    1.7944483304481419e-17    0                             0                           0                    -0.8908708063747478  -0.4454354031873739  -0.08908708063747478        0                                0                         
                       1.7798102980542355e-17                          7                                           1778.9115899151896                  -7.1374746882503611e-08                -3.8032393906312505e-22             -1.4600914522106091e-19         1.0088288246431002e-24             0.0051478616509885904                    0.0051478616509885904                      0.0051478616509885904            0                    0                    0                    0                    0                    1.7944111116934592e-17    1                             1                           0                    -0.89086330825819704 -0.44543622320402576 -0.089157920965337048        5.3232895022132493e-15              5.3232895022132493e-15       
# Table End
