# ODT 1.0
# Table Start
# Title: mmArchive Data Table, Wed Jun 16 18:47:57 EDT 2010
# Columns: {Oxs_RungeKuttaEvolve:evolve:Total energy} {Oxs_RungeKuttaEvolve:evolve:Energy calc count} {Oxs_RungeKuttaEvolve:evolve:Max dm/dt} Oxs_RungeKuttaEvolve:evolve:dE/dt {Oxs_RungeKuttaEvolve:evolve:Delta E} Oxs_CubicAnisotropy::Energy Oxs_UniformExchange::Energy {Oxs_UniformExchange::Max Spin Ang} {Oxs_UniformExchange::Stage Max Spin Ang} {Oxs_UniformExchange::Run Max Spin Ang} Oxs_UZeeman::Energy  Oxs_UZeeman::B       Oxs_UZeeman::Bx      Oxs_UZeeman::By      Oxs_UZeeman::Bz      Oxs_Demag::Energy    Oxs_TimeDriver::Iteration {Oxs_TimeDriver::Stage iteration} Oxs_TimeDriver::Stage Oxs_TimeDriver::mx   Oxs_TimeDriver::my   Oxs_TimeDriver::mz   {Oxs_TimeDriver::Last time step} {Oxs_TimeDriver::Simulation time}
# Units:                       J                                            {}                                        deg/ns                                 J/s                                  J                                J                           J                              deg                                    deg                                      deg                            J                 mT                   mT                   mT                   mT                     J                       {}                            {}                          {}                   {}                   {}                   {}                          s                                 s                
                       2.1178528877004566e-18                          1                                           2012.8261573093257                  -2.7367897643655765e-08                 0                               -1.8000000000000002e-20         0                               0                                      0                                        0                              0                    0                    0                    0                    0                    2.1358528877004568e-18    0                             0                           0                    -0.89087080637474803 -0.44543540318737401 -0.089087080637474808        0                                0                         
                       2.1177237439498065e-18                          7                                           2015.1325985358005                  -2.7357160760544338e-08                -1.2914375065013322e-22             -1.8003734098394766e-20         8.3884757724587703e-26             0.0046674705331783755                    0.0046674705331783755                      0.0046674705331783755            0                    0                    0                    0                    0                    2.1357273941634436e-18    1                             1                           0                    -0.89084217725557124 -0.44546943249114412 -0.089203125789816387        4.7197319875350096e-15              4.7197319875350096e-15       
# Table End
