# ODT 1.0
# Table Start
# Title: mmArchive Data Table, Wed Jun 16 18:48:01 EDT 2010
# Columns: {Oxs_RungeKuttaEvolve:evolve:Total energy} {Oxs_RungeKuttaEvolve:evolve:Energy calc count} {Oxs_RungeKuttaEvolve:evolve:Max dm/dt} Oxs_RungeKuttaEvolve:evolve:dE/dt {Oxs_RungeKuttaEvolve:evolve:Delta E} Oxs_CubicAnisotropy::Energy Oxs_UniformExchange::Energy {Oxs_UniformExchange::Max Spin Ang} {Oxs_UniformExchange::Stage Max Spin Ang} {Oxs_UniformExchange::Run Max Spin Ang} Oxs_UZeeman::Energy  Oxs_UZeeman::B       Oxs_UZeeman::Bx      Oxs_UZeeman::By      Oxs_UZeeman::Bz      Oxs_Demag::Energy    Oxs_TimeDriver::Iteration {Oxs_TimeDriver::Stage iteration} Oxs_TimeDriver::Stage Oxs_TimeDriver::mx   Oxs_TimeDriver::my   Oxs_TimeDriver::mz   {Oxs_TimeDriver::Last time step} {Oxs_TimeDriver::Simulation time}
# Units:                       J                                            {}                                        deg/ns                                 J/s                                  J                                J                           J                              deg                                    deg                                      deg                            J                 mT                   mT                   mT                   mT                     J                       {}                            {}                          {}                   {}                   {}                   {}                          s                                 s                
                       4.3923343983635009e-18                          1                                           2025.3145020269005                  -6.0860243887840081e-08                 0                               -3.6857142857142863e-20         0                               0                                      0                                        0                              0                    0                    0                    0                    0                    4.4291915412206437e-18    0                             0                           0                    -0.89087080637474791 -0.44543540318737396 -0.089087080637474794        0                                0                         
                       4.3920489703470215e-18                          7                                           2027.7146724404988                  -6.0841166308753557e-08                -2.8542801647983362e-22             -3.6865245834325422e-20         1.5899988018845361e-25             0.0046391968789108269                    0.0046391968789108269                      0.0046391968789108269            0                    0                    0                    0                    0                    4.4289140571814668e-18    1                             1                           0                    -0.89084042139651609 -0.44547183586154582 -0.089208660290854905        4.6906295246948358e-15              4.6906295246948358e-15       
# Table End
