# ODT 1.0
# Table Start
# Title: mmArchive Data Table, Wed Jun 16 18:47:56 EDT 2010
# Columns: {Oxs_RungeKuttaEvolve:evolve:Total energy} {Oxs_RungeKuttaEvolve:evolve:Energy calc count} {Oxs_RungeKuttaEvolve:evolve:Max dm/dt} Oxs_RungeKuttaEvolve:evolve:dE/dt {Oxs_RungeKuttaEvolve:evolve:Delta E} Oxs_CubicAnisotropy::Energy Oxs_UniformExchange::Energy {Oxs_UniformExchange::Max Spin Ang} {Oxs_UniformExchange::Stage Max Spin Ang} {Oxs_UniformExchange::Run Max Spin Ang} Oxs_UZeeman::Energy  Oxs_UZeeman::B       Oxs_UZeeman::Bx      Oxs_UZeeman::By      Oxs_UZeeman::Bz      Oxs_Demag::Energy    Oxs_TimeDriver::Iteration {Oxs_TimeDriver::Stage iteration} Oxs_TimeDriver::Stage Oxs_TimeDriver::mx   Oxs_TimeDriver::my   Oxs_TimeDriver::mz   {Oxs_TimeDriver::Last time step} {Oxs_TimeDriver::Simulation time}
# Units:                       J                                            {}                                        deg/ns                                 J/s                                  J                                J                           J                              deg                                    deg                                      deg                            J                 mT                   mT                   mT                   mT                     J                       {}                            {}                          {}                   {}                   {}                   {}                          s                                 s                
                       1.0849927551665735e-18                          1                                           1977.8825975790096                  -1.2324100190338359e-08                 0                               -9.4285714285714293e-21         0                               0                                      0                                        0                              0                    0                    0                    0                    0                    1.094421326595145e-18    0                             0                           0                    -0.89087080637474803 -0.44543540318737401 -0.089087080637474808        0                                0                         
                       1.0849335778391276e-18                          7                                           1979.7858819989983                  -1.2317136606195678e-08                -5.9177327445905966e-23             -9.4303404365326026e-21         5.0550328846340394e-26             0.0047469392905962089                    0.0047469392905962089                      0.0047469392905962089            0                    0                    0                    0                    0                    1.0943638677253312e-18    1                             1                           0                    -0.89084498945664303 -0.44546555438537627 -0.089194405229862814        4.8031162272362863e-15              4.8031162272362863e-15       
# Table End
