# ODT 1.0
# Table Start
# Title: mmArchive Data Table, Wed Jun 16 18:48:16 EDT 2010
# Columns: {Oxs_RungeKuttaEvolve:evolve:Total energy} {Oxs_RungeKuttaEvolve:evolve:Energy calc count} {Oxs_RungeKuttaEvolve:evolve:Max dm/dt} Oxs_RungeKuttaEvolve:evolve:dE/dt {Oxs_RungeKuttaEvolve:evolve:Delta E} Oxs_CubicAnisotropy::Energy Oxs_UniformExchange::Energy {Oxs_UniformExchange::Max Spin Ang} {Oxs_UniformExchange::Stage Max Spin Ang} {Oxs_UniformExchange::Run Max Spin Ang} Oxs_UZeeman::Energy  Oxs_UZeeman::B       Oxs_UZeeman::Bx      Oxs_UZeeman::By      Oxs_UZeeman::Bz      Oxs_Demag::Energy    Oxs_TimeDriver::Iteration {Oxs_TimeDriver::Stage iteration} Oxs_TimeDriver::Stage Oxs_TimeDriver::mx   Oxs_TimeDriver::my   Oxs_TimeDriver::mz   {Oxs_TimeDriver::Last time step} {Oxs_TimeDriver::Simulation time}
# Units:                       J                                            {}                                        deg/ns                                 J/s                                  J                                J                           J                              deg                                    deg                                      deg                            J                 mT                   mT                   mT                   mT                     J                       {}                            {}                          {}                   {}                   {}                   {}                          s                                 s                
                       2.3141198086857768e-19                          1                                           1755.6947657580808                  -1.0821494574936003e-09                 0                               -2.285714285714286e-21         0                               0                                      0                                        0                              0                    0                    0                    0                    0                    2.3369769515429192e-19    0                             0                           0                    -0.89087080637474791 -0.44543540318737396 -0.089087080637474794        0                                0                         
                       2.3140613496322346e-19                          7                                           1750.0423906560163                  -1.0786224423827178e-09                -5.8459053541785704e-24             -2.2858955225195504e-21         2.4208432399456636e-26             0.0052360865940467077                    0.0052360865940467077                      0.0052360865940467077            0                    0                    0                    0                    0                    2.3369200627731064e-19    1                             1                           0                    -0.89086034878020814 -0.44544440626509635 -0.089146600522111957        5.4109633321701288e-15              5.4109633321701288e-15       
# Table End
