# ODT 1.0
# Table Start
# Title: mmArchive Data Table, Wed Jun 16 18:47:19 EDT 2010
# Columns: {Oxs_RungeKuttaEvolve:evolve:Total energy} {Oxs_RungeKuttaEvolve:evolve:Energy calc count} {Oxs_RungeKuttaEvolve:evolve:Max dm/dt} Oxs_RungeKuttaEvolve:evolve:dE/dt {Oxs_RungeKuttaEvolve:evolve:Delta E} Oxs_CubicAnisotropy::Energy Oxs_UniformExchange::Energy {Oxs_UniformExchange::Max Spin Ang} {Oxs_UniformExchange::Stage Max Spin Ang} {Oxs_UniformExchange::Run Max Spin Ang} Oxs_UZeeman::Energy  Oxs_UZeeman::B       Oxs_UZeeman::Bx      Oxs_UZeeman::By      Oxs_UZeeman::Bz      Oxs_Demag::Energy    Oxs_TimeDriver::Iteration {Oxs_TimeDriver::Stage iteration} Oxs_TimeDriver::Stage Oxs_TimeDriver::mx   Oxs_TimeDriver::my   Oxs_TimeDriver::mz   {Oxs_TimeDriver::Last time step} {Oxs_TimeDriver::Simulation time}
# Units:                       J                                            {}                                        deg/ns                                 J/s                                  J                                J                           J                              deg                                    deg                                      deg                            J                 mT                   mT                   mT                   mT                     J                       {}                            {}                          {}                   {}                   {}                   {}                          s                                 s                
                       2.0519667737933117e-21                          1                                           1568.120792110655                   -1.9571325698549138e-11                 0                               -1.785714285714286e-23         0                               0                                      0                                        0                              0                    0                    0                    0                    0                    2.0698239166504546e-21    0                             0                           0                    -0.89087080637474791 -0.44543540318737396 -0.089087080637474794        0                                0                         
                       2.0518482192235458e-21                          7                                           1566.2809460865381                  -1.956719447847719e-11                -1.185545697656183e-25             -1.7861335515275347e-23         5.4584252809244143e-29             0.0025761695061682025                    0.0025761695061682025                      0.0025761695061682025            0                    0                    0                    0                    0                    2.0697095001545684e-21    1                             1                           0                    -0.89083850689532873 -0.44547307600246827 -0.089221593148692172        6.0582067706743531e-15              6.0582067706743531e-15       
# Table End
