# ODT 1.0
# Table Start
# Title: mmArchive Data Table, Wed Jun 16 18:48:46 EDT 2010
# Columns: {Oxs_CGEvolve:evolve:Max mxHxm} {Oxs_CGEvolve:evolve:Total energy} {Oxs_CGEvolve:evolve:Delta E} {Oxs_CGEvolve:evolve:Bracket count} {Oxs_CGEvolve:evolve:Line min count} {Oxs_CGEvolve:evolve:Cycle count} {Oxs_CGEvolve:evolve:Cycle sub count} {Oxs_CGEvolve:evolve:Energy calc count} Oxs_UniformExchange::Energy {Oxs_UniformExchange::Max Spin Ang} {Oxs_UniformExchange::Stage Max Spin Ang} {Oxs_UniformExchange::Run Max Spin Ang} Oxs_UniaxialAnisotropy::Energy Oxs_DemagOld::Energy Oxs_UZeeman::Energy  Oxs_UZeeman::B       Oxs_UZeeman::Bx      Oxs_UZeeman::By      Oxs_UZeeman::Bz      Oxs_MinDriver::Iteration {Oxs_MinDriver::Stage iteration} Oxs_MinDriver::Stage Oxs_MinDriver::mx    Oxs_MinDriver::my    Oxs_MinDriver::mz   
# Units:                 A/m                               J                                J                               {}                                   {}                                 {}                                  {}                                     {}                                 J                              deg                                    deg                                      deg                                 J                         J                    J                 mT                   mT                   mT                   mT                        {}                           {}                         {}                 {}                   {}                   {}           
                 430893.03229724354                1.2609830417337201e-16             1.2609830417337201e-16              0                                    0                                  1                                   1                                      1                                 0                               0                                      0                                        0                                   4.9504950495049508e-20       5.5466163388297131e-16 -4.2861283466009429e-16  50.007616402258023   50.000000000000007   0.87275325000000015  0                      0                            0                          0                    0.99503719020998849  0.099503719020998888  0                  
                 430270.84508665121                1.259826360367102e-16            -1.1566813666180228e-19              1                                    0                                  1                                   1                                      2                                 5.6355558573772681e-24             0.014488046709011637                    0.014488046709011637                      0.014488046709011637                 4.9466462016357978e-20       5.5454737069973953e-16 -4.2861420676060157e-16  50.007616402258023   50.000000000000007   0.87275325000000015  0                      1                            1                          0                    0.99504105820426236  0.099464930115832753  2.3598020340124283e-21
                 425901.11208735948                1.251753918480401e-16            -8.0724418867010637e-19              2                                    0                                  1                                   1                                      3                                 3.6066497706844723e-22             0.11590044579731469                    0.11590044579731469                      0.11590044579731469                 4.9203026355970515e-20       5.5374937938416783e-16 -4.2862355122746077e-16  50.007616402258023   50.000000000000007   0.87275325000000015  0                      2                            2                          0                    0.99506753001606607  0.099193347424706313  1.8876412061348579e-20
                 390113.18512469268                1.1887325131850922e-16            -6.3021405295308871e-18              3                                    0                                  1                                   1                                      4                                 2.3039261355657609e-20             0.9252193614996792                     0.9252193614996792                       0.9252193614996792                  4.747224467358669e-20       5.4748466140806773e-16 -4.2868192159558773e-16  50.007616402258023   50.000000000000007   0.87275325000000015  0                      3                            3                          0                    0.99524126487068532  0.097016912535260444  1.5081225673969943e-19
                 332281.04166338354                1.0457264251362552e-16            -1.4300608804883692e-17              4                                    0                                  1                                   1                                      5                                 2.2580855843332058e-19             2.8695582916371567                     2.8695582916371567                       2.8695582916371567                  4.6038775471247088e-20       5.330030979731512e-16 -4.287023027934302e-16  50.007616402258023   50.000000000000007   0.87275325000000015  0                      4                            4                          0                    0.99538280382039535  0.091623588867166636  4.76046075943994e-19
                 331798.60235623003                1.0446335721832607e-16            -1.0928529529945285e-19              5                                    0                                  2                                   0                                      6                                 2.2773048366216428e-19             2.8693554566491422                     2.8695582916371567                       2.8695582916371567                  4.604178367820856e-20       5.3289140509092225e-16 -4.2870182013993654e-16  50.007616402258023   50.000000000000007   0.87275325000000015  0                      5                            5                          0                    0.99538246266309982  0.091578828639129972  4.785531144484382e-19
                 328407.80262570758                1.0370089533325715e-16            -7.624618850689245e-19              6                                    0                                  2                                   0                                      7                                 2.4151440206696974e-19             2.8879153147431209                     2.8879153147431209                       2.8879153147431209                  4.6070064841140192e-20       5.3211143478960529e-16 -4.2869812392325628e-16  50.007616402258023   50.000000000000007   0.87275325000000015  0                      6                            6                          0                    0.99537933712701387  0.091265434408931909  4.9461447857342944e-19
                 303785.22180085845                9.7763848402192319e-17            -5.9370469310648331e-18              7                                    0                                  2                                   0                                      8                                 3.7246409987370091e-19             3.1219717110928613                     3.1219717110928613                       3.1219717110928613                  4.6748630075707969e-20       5.259932447169713e-16 -4.2864860904472842e-16  50.007616402258023   50.000000000000007   0.87275325000000015  0                      7                            7                          0                    0.99530802820861952  0.088753730104016951  6.2525158177565975e-19
                 276621.00898673851                8.4423964328438952e-17            -1.3339884073753356e-17              8                                    0                                  2                                   0                                      9                                 8.4637619229953139e-19             3.693647597220326                      3.693647597220326                        3.693647597220326                   5.1760647598668012e-20       5.1190349439543934e-16 -4.2837766690689862e-16  50.007616402258023   50.000000000000007   0.87275325000000015  0                      8                            8                          0                    0.99478660119598517  0.082527973722201137  9.4562104916454947e-19
                 276280.24822632887                8.4331328262256351e-17            -9.2636066182609331e-20              9                                    0                                  3                                   0                                      10                                8.5022489589893393e-19             3.6937707652154339                     3.6937707652154339                       3.6937707652154339                  5.1812275366638912e-20       5.118042927682397e-16 -4.2837500167724887e-16  50.007616402258023   50.000000000000007   0.87275325000000015  0                      9                            9                          0                    0.99478120585120111  0.082481977691614472  9.4810650286786385e-19
                 273884.9638896719                 8.3685007774709714e-17            -6.4632048754663787e-19              10                                   0                                  3                                   0                                      11                                8.7753798309158067e-19             3.752982862633564                      3.752982862633564                        3.752982862633564                   5.2180647203372612e-20       5.111113150044398e-16 -4.2835602586002508e-16  50.007616402258023   50.000000000000007   0.87275325000000015  0                      10                           10                         0                    0.99474269738492538  0.0821599312700457   9.5940247994148258e-19
# Table End
