# ODT 1.0
# Table Start
# Title: mmArchive Data Table, Wed Jun 16 18:49:10 EDT 2010
# Columns: {Oxs_CGEvolve:evolve:Max mxHxm} {Oxs_CGEvolve:evolve:Total energy} {Oxs_CGEvolve:evolve:Delta E} {Oxs_CGEvolve:evolve:Bracket count} {Oxs_CGEvolve:evolve:Line min count} {Oxs_CGEvolve:evolve:Cycle count} {Oxs_CGEvolve:evolve:Cycle sub count} {Oxs_CGEvolve:evolve:Energy calc count} Oxs_UniformExchange::Energy {Oxs_UniformExchange::Max Spin Ang} {Oxs_UniformExchange::Stage Max Spin Ang} {Oxs_UniformExchange::Run Max Spin Ang} Oxs_UniaxialAnisotropy::Energy Oxs_Demag::Energy    Oxs_UZeeman::Energy  Oxs_UZeeman::B       Oxs_UZeeman::Bx      Oxs_UZeeman::By      Oxs_UZeeman::Bz      Oxs_MinDriver::Iteration {Oxs_MinDriver::Stage iteration} Oxs_MinDriver::Stage Oxs_MinDriver::mx    Oxs_MinDriver::my    Oxs_MinDriver::mz   
# Units:                 A/m                               J                                J                               {}                                   {}                                 {}                                  {}                                     {}                                 J                              deg                                    deg                                      deg                                 J                        J                     J                 mT                   mT                   mT                   mT                        {}                           {}                         {}                 {}                   {}                   {}           
                 430893.03229680762                1.2609830417302509e-16             1.2609830417302509e-16              0                                    0                                  1                                   1                                      1                                 0                               0                                      0                                        0                                   4.9504950495049508e-20       5.5466163388262431e-16 -4.2861283466009429e-16  50.007616402258023   50.000000000000007   0.87275325000000015  0                      0                            0                          0                    0.99503719020998849  0.099503719020998888  0                  
                 430270.84508621634                1.259826360363631e-16            -1.1566813666199148e-19              1                                    0                                  1                                   1                                      2                                 5.6355558573867529e-24             0.014488046709011637                    0.014488046709011637                      0.014488046709011637                 4.9466462016358045e-20       5.5454737069939243e-16 -4.2861420676060157e-16  50.007616402258023   50.000000000000007   0.87275325000000015  0                      1                            1                          0                    0.99504105820426236  0.099464930115832823 -3.272459015654843e-22
                 425901.112086932                  1.2517539184769167e-16            -8.0724418867142322e-19              2                                    0                                  1                                   1                                      3                                 3.6066497706905425e-22             0.11590044579741296                    0.11590044579741296                      0.11590044579741296                 4.9203026355971038e-20       5.5374937938381935e-16 -4.2862355122746072e-16  50.007616402258023   50.000000000000007   0.87275325000000015  0                      2                            2                          0                    0.99506753001606596  0.099193347424706826 -2.616253467099235e-21
                 390113.18512432312                1.1887325131815073e-16            -6.3021405295409474e-18              3                                    0                                  1                                   1                                      4                                 2.3039261355696348e-20             0.92521936150035422                    0.92521936150035422                      0.92521936150035422                 4.747224467359189e-20       5.47484661407709e-16 -4.2868192159558753e-16  50.007616402258023   50.000000000000007   0.87275325000000015  0                      3                            3                          0                    0.99524126487068487  0.097016912535264496 -2.1196765273245102e-20
                 332281.04166360269                1.0457264251324602e-16            -1.4300608804904704e-17              4                                    0                                  1                                   1                                      5                                 2.2580855843369715e-19             2.8695582916399611                     2.8695582916399611                       2.8695582916399611                  4.60387754712713e-20       5.3300309797277027e-16 -4.2870230279342926e-16  50.007616402258023   50.000000000000007   0.87275325000000015  0                      4                            4                          0                    0.9953828038203929   0.091623588867179348 -6.5621410114576873e-20
                 331798.60235644196                1.0446335721794663e-16            -1.0928529529939567e-19              5                                    0                                  2                                   0                                      6                                 2.2773048366254196e-19             2.8693554566519373                     2.8695582916399611                       2.8695582916399611                  4.6041783678232965e-20       5.3289140509054142e-16 -4.2870182013993555e-16  50.007616402258023   50.000000000000007   0.87275325000000015  0                      5                            5                          0                    0.99538246266309738  0.091578828639142837 -6.6516817893507112e-20
                 328407.80262586864                1.037008953328781e-16            -7.624618850685268e-19              6                                    0                                  2                                   0                                      7                                 2.4151440206735444e-19             2.8879153147429788                     2.8879153147429788                       2.8879153147429788                  4.6070064841165921e-20       5.3211143478922487e-16 -4.2869812392325529e-16  50.007616402258023   50.000000000000007   0.87275325000000015  0                      6                            6                          0                    0.99537933712701121  0.091265434408945884 -6.8798816772773851e-20
                 303785.2218005677                 9.7763848401816291e-17            -5.9370469310618101e-18              7                                    0                                  2                                   0                                      8                                 3.7246409987411233e-19             3.1219717110916796                     3.1219717110916796                       3.1219717110916796                  4.6748630075743774e-20       5.2599324471659344e-16 -4.2864860904472704e-16  50.007616402258023   50.000000000000007   0.87275325000000015  0                      7                            7                          0                    0.99530802820861586  0.088753730104039794 -8.7461407625321663e-20
                 276621.00898611225                8.4423964328069087e-17            -1.33398840737472e-17              8                                    0                                  2                                   0                                      9                                 8.4637619229980112e-19             3.6936475972214526                     3.6936475972214526                       3.6936475972214526                  5.1760647598724604e-20       5.11903494395067e-16 -4.283776669068965e-16  50.007616402258023   50.000000000000007   0.87275325000000015  0                      8                            8                          0                    0.9947866011959795   0.082527973722245865 -1.3048249819126626e-19
                 276280.24822571391                8.433132826188624e-17            -9.2636066182845968e-20              9                                    0                                  3                                   0                                      10                                8.5022489589921425e-19             3.6937707652118088                     3.6937707652118088                       3.6937707652118088                  5.1812275366695793e-20       5.1180429276786706e-16 -4.2837500167724675e-16  50.007616402258023   50.000000000000007   0.87275325000000015  0                      9                            9                          0                    0.99478120585119534  0.082481977691659228 -1.328816126900609e-19
                 273884.9638891361                 8.3685007774337951e-17            -6.4632048754828348e-19              10                                   0                                  3                                   0                                      11                                8.7753798309193755e-19             3.7529828626300641                     3.7529828626300641                       3.7529828626300641                  5.2180647203431545e-20       5.1111131500406549e-16 -4.2835602586002286e-16  50.007616402258023   50.000000000000007   0.87275325000000015  0                      10                           10                         0                    0.99474269738491949  0.082159931270090622 -1.3248503069800874e-19
# Table End
