# ODT 1.0
# Table Start
# Title: mmArchive Data Table, Wed Jun 16 18:47:31 EDT 2010
# Columns: {Oxs_RungeKuttaEvolve:evolve:Total energy} {Oxs_RungeKuttaEvolve:evolve:Energy calc count} {Oxs_RungeKuttaEvolve:evolve:Max dm/dt} Oxs_RungeKuttaEvolve:evolve:dE/dt {Oxs_RungeKuttaEvolve:evolve:Delta E} Oxs_CubicAnisotropy::Energy Oxs_UniformExchange::Energy {Oxs_UniformExchange::Max Spin Ang} {Oxs_UniformExchange::Stage Max Spin Ang} {Oxs_UniformExchange::Run Max Spin Ang} Oxs_UZeeman::Energy  Oxs_UZeeman::B       Oxs_UZeeman::Bx      Oxs_UZeeman::By      Oxs_UZeeman::Bz      Oxs_Demag::Energy    Oxs_TimeDriver::Iteration {Oxs_TimeDriver::Stage iteration} Oxs_TimeDriver::Stage Oxs_TimeDriver::mx   Oxs_TimeDriver::my   Oxs_TimeDriver::mz   {Oxs_TimeDriver::Last time step} {Oxs_TimeDriver::Simulation time}
# Units:                       J                                            {}                                        deg/ns                                 J/s                                  J                                J                           J                              deg                                    deg                                      deg                            J                 mT                   mT                   mT                   mT                     J                       {}                            {}                          {}                   {}                   {}                   {}                          s                                 s                
                       1.6555611047656882e-19                          1                                           1638.8393315584724                  -1.1444476542024164e-09                 0                               -1.4285714285714287e-21         0                               0                                      0                                        0                              0                    0                    0                    0                    0                    1.6698468190514024e-19    0                             0                           0                    -0.89087080637474791 -0.44543540318737396 -0.089087080637474794        0                                0                         
                       1.6554948481783323e-19                          7                                           1636.7772496841578                  -1.1415393608444356e-09                -6.6256587355960565e-24             -1.4287784112157632e-21         2.2127983258575373e-26             0.0057868196781135344                    0.0057868196781135344                      0.0057868196781135344            0                    0                    0                    0                    0                    1.6697824110106573e-19    1                             1                           0                    -0.8908514168225673  -0.44545417421497219 -0.089187042006791589        5.796785454841305e-15              5.796785454841305e-15       
# Table End
