# ODT 1.0
# Table Start
# Title: mmArchive Data Table, Wed Jun 16 18:48:00 EDT 2010
# Columns: {Oxs_RungeKuttaEvolve:evolve:Total energy} {Oxs_RungeKuttaEvolve:evolve:Energy calc count} {Oxs_RungeKuttaEvolve:evolve:Max dm/dt} Oxs_RungeKuttaEvolve:evolve:dE/dt {Oxs_RungeKuttaEvolve:evolve:Delta E} Oxs_CubicAnisotropy::Energy Oxs_UniformExchange::Energy {Oxs_UniformExchange::Max Spin Ang} {Oxs_UniformExchange::Stage Max Spin Ang} {Oxs_UniformExchange::Run Max Spin Ang} Oxs_UZeeman::Energy  Oxs_UZeeman::B       Oxs_UZeeman::Bx      Oxs_UZeeman::By      Oxs_UZeeman::Bz      Oxs_Demag::Energy    Oxs_TimeDriver::Iteration {Oxs_TimeDriver::Stage iteration} Oxs_TimeDriver::Stage Oxs_TimeDriver::mx   Oxs_TimeDriver::my   Oxs_TimeDriver::mz   {Oxs_TimeDriver::Last time step} {Oxs_TimeDriver::Simulation time}
# Units:                       J                                            {}                                        deg/ns                                 J/s                                  J                                J                           J                              deg                                    deg                                      deg                            J                 mT                   mT                   mT                   mT                     J                       {}                            {}                          {}                   {}                   {}                   {}                          s                                 s                
                       4.3578667420882361e-18                          1                                           2025.2494278960589                  -6.0351790265296889e-08                 0                               -3.6571428571428577e-20         0                               0                                      0                                        0                              0                    0                    0                    0                    0                    4.3944381706596647e-18    0                             0                           0                    -0.89087080637474791 -0.44543540318737396 -0.089087080637474794        0                                0                         
                       4.3575836896473225e-18                          7                                           2027.6490352779015                  -6.0332839216142003e-08                -2.8305244091363872e-22             -3.6579465186958417e-20         1.5785635761431976e-25             0.0046393441683708217                    0.0046393441683708217                      0.0046393441683708217            0                    0                    0                    0                    0                    4.3941629969779236e-18    1                             1                           0                    -0.89084043512613642 -0.44547181713346162 -0.089208616693069398        4.6907802412610107e-15              4.6907802412610107e-15       
# Table End
