# ODT 1.0
# Table Start
# Title: mmArchive Data Table, Wed Jun 16 19:05:47 EDT 2010
# Columns: {Oxs_CGEvolve:evolve:Max mxHxm} {Oxs_CGEvolve:evolve:Total energy} {Oxs_CGEvolve:evolve:Delta E} {Oxs_CGEvolve:evolve:Bracket count} {Oxs_CGEvolve:evolve:Line min count} {Oxs_CGEvolve:evolve:Cycle count} {Oxs_CGEvolve:evolve:Cycle sub count} {Oxs_CGEvolve:evolve:Energy calc count} Oxs_Demag::Energy    Oxs_MinDriver::Iteration {Oxs_MinDriver::Stage iteration} Oxs_MinDriver::Stage Oxs_MinDriver::mx    Oxs_MinDriver::my    Oxs_MinDriver::mz    {Oxs_MinDriver::Max Spin Ang} {Oxs_MinDriver::Stage Max Spin Ang} {Oxs_MinDriver::Run Max Spin Ang} Oxs_Demag::R0x       Oxs_Demag::R0y       Oxs_Demag::R0z       Oxs_Demag::R1x       Oxs_Demag::R1y       Oxs_Demag::R1z       Oxs_Demag::R0x-xMs0  Oxs_Demag::R0x-xMs1  Oxs_Demag::R0x-norm0 Oxs_Demag::R0x-norm1
# Units:                 A/m                               J                                J                               {}                                   {}                                 {}                                  {}                                     {}                            J                       {}                           {}                         {}                 {}                   {}                   {}                         deg                              deg                                deg                     A/m                  A/m                  A/m                  A/m                  A/m                  A/m                     A/m                  A/m                  A/m                  A/m         
                 0                                 1.6003538237636077e-20             1.6003538237636077e-20              0                                    0                                  1                                   1                                      1                              1.6003538237636077e-20    0                            0                          0                   -1                    0                    0                        90                               90                                 90                         -143.88210417753933  -206.35153432005177  -127.9338106357702    0.04897186212104998 -0.1523447681339718  -0.17270151642101436 -143.88210417753933   0                   -0.00071941052088769666 -143.88210417753933 
# Table End
