# ODT 1.0
# Table Start
# Title: mmArchive Data Table, Wed Jun 16 18:47:41 EDT 2010
# Columns: {Oxs_RungeKuttaEvolve:evolve:Total energy} {Oxs_RungeKuttaEvolve:evolve:Energy calc count} {Oxs_RungeKuttaEvolve:evolve:Max dm/dt} Oxs_RungeKuttaEvolve:evolve:dE/dt {Oxs_RungeKuttaEvolve:evolve:Delta E} Oxs_CubicAnisotropy::Energy Oxs_UniformExchange::Energy {Oxs_UniformExchange::Max Spin Ang} {Oxs_UniformExchange::Stage Max Spin Ang} {Oxs_UniformExchange::Run Max Spin Ang} Oxs_UZeeman::Energy  Oxs_UZeeman::B       Oxs_UZeeman::Bx      Oxs_UZeeman::By      Oxs_UZeeman::Bz      Oxs_Demag::Energy    Oxs_TimeDriver::Iteration {Oxs_TimeDriver::Stage iteration} Oxs_TimeDriver::Stage Oxs_TimeDriver::mx   Oxs_TimeDriver::my   Oxs_TimeDriver::mz   {Oxs_TimeDriver::Last time step} {Oxs_TimeDriver::Simulation time}
# Units:                       J                                            {}                                        deg/ns                                 J/s                                  J                                J                           J                              deg                                    deg                                      deg                            J                 mT                   mT                   mT                   mT                     J                       {}                            {}                          {}                   {}                   {}                   {}                          s                                 s                
                       2.1473199924115386e-18                          1                                           1984.0871203801951                  -6.7303926897767443e-08                 0                               -7.3142857142857153e-20         0                               0                                      0                                        0                              0                    0                    0                    0                    0                    2.220462849554396e-18    0                             0                           0                    -0.89087080637474803 -0.44543540318737401 -0.08908708063747478        0                                0                         
                       2.1469977896854953e-18                          7                                           1989.1072060424522                  -6.7280986546994588e-08                -3.2220272604324035e-22             -7.3130760202240665e-20         8.0561998382160398e-26             0.0047798788243631398                    0.0047798788243631398                      0.0047798788243631398            0                    0                    0                    0                    0                    2.2201284693257378e-18    1                             1                           0                    -0.89089366874960385 -0.44540792654428629 -0.088995778115303431        4.7880961992130613e-15              4.7880961992130613e-15       
# Table End
