# ODT 1.0
# Table Start
# Title: mmArchive Data Table, Wed Jun 16 18:47:54 EDT 2010
# Columns: {Oxs_RungeKuttaEvolve:evolve:Total energy} {Oxs_RungeKuttaEvolve:evolve:Energy calc count} {Oxs_RungeKuttaEvolve:evolve:Max dm/dt} Oxs_RungeKuttaEvolve:evolve:dE/dt {Oxs_RungeKuttaEvolve:evolve:Delta E} Oxs_CubicAnisotropy::Energy Oxs_UniformExchange::Energy {Oxs_UniformExchange::Max Spin Ang} {Oxs_UniformExchange::Stage Max Spin Ang} {Oxs_UniformExchange::Run Max Spin Ang} Oxs_UZeeman::Energy  Oxs_UZeeman::B       Oxs_UZeeman::Bx      Oxs_UZeeman::By      Oxs_UZeeman::Bz      Oxs_Demag::Energy    Oxs_TimeDriver::Iteration {Oxs_TimeDriver::Stage iteration} Oxs_TimeDriver::Stage Oxs_TimeDriver::mx   Oxs_TimeDriver::my   Oxs_TimeDriver::mz   {Oxs_TimeDriver::Last time step} {Oxs_TimeDriver::Simulation time}
# Units:                       J                                            {}                                        deg/ns                                 J/s                                  J                                J                           J                              deg                                    deg                                      deg                            J                 mT                   mT                   mT                   mT                     J                       {}                            {}                          {}                   {}                   {}                   {}                          s                                 s                
                       4.6778378516030714e-19                          1                                           1887.3959280024424                  -3.7750012248552739e-09                 0                               -4.2857142857142862e-21         0                               0                                      0                                        0                              0                    0                    0                    0                    0                    4.7206949944602141e-19    0                             0                           0                    -0.89087080637474791 -0.44543540318737396 -0.089087080637474794        0                                0                         
                       4.6776479577163459e-19                          7                                           1882.8930981392414                  -3.7703759520250307e-09                -1.8989388672602199e-23             -4.2863239676189511e-21         3.1267932950249957e-26             0.0049489715284960784                    0.0049489715284960784                      0.0049489715284960784            0                    0                    0                    0                    0                    4.7205108847132052e-19    1                             1                           0                    -0.89085142303409015 -0.44545668357830931 -0.089174446543929822        5.0333901112388677e-15              5.0333901112388677e-15       
# Table End
