# ODT 1.0
# Table Start
# Title: mmArchive Data Table, Wed Jun 16 18:49:16 EDT 2010
# Columns: {Oxs_CGEvolve:evolve:Max mxHxm} {Oxs_CGEvolve:evolve:Total energy} {Oxs_CGEvolve:evolve:Delta E} {Oxs_CGEvolve:evolve:Bracket count} {Oxs_CGEvolve:evolve:Line min count} {Oxs_CGEvolve:evolve:Cycle count} {Oxs_CGEvolve:evolve:Cycle sub count} {Oxs_CGEvolve:evolve:Energy calc count} Oxs_UniformExchange::Energy {Oxs_UniformExchange::Max Spin Ang} {Oxs_UniformExchange::Stage Max Spin Ang} {Oxs_UniformExchange::Run Max Spin Ang} Oxs_UniaxialAnisotropy::Energy Oxs_Demag::Energy    Oxs_UZeeman::Energy  Oxs_UZeeman::B       Oxs_UZeeman::Bx      Oxs_UZeeman::By      Oxs_UZeeman::Bz      Oxs_MinDriver::Iteration {Oxs_MinDriver::Stage iteration} Oxs_MinDriver::Stage Oxs_MinDriver::mx    Oxs_MinDriver::my    Oxs_MinDriver::mz   
# Units:                 A/m                               J                                J                               {}                                   {}                                 {}                                  {}                                     {}                                 J                              deg                                    deg                                      deg                                 J                        J                     J                 mT                   mT                   mT                   mT                        {}                           {}                         {}                 {}                   {}                   {}           
                 253391.72499622646               -3.0361106672319434e-16            -3.0361106672319434e-16              0                                    0                                  1                                   1                                      1                                 0                               0                                      0                                        0                                   4.9504950495049508e-20       1.2495226298640491e-16 -4.2861283466009429e-16  50.007616402258023   50.000000000000007   0.87275325000000015  0                      0                            0                          0                    0.99503719020998849  0.099503719020998888  0                  
                 252606.25374534322               -3.036314807956386e-16            -2.0414072444266122e-20              1                                    0                                  1                                   1                                      2                                 2.0141268225136431e-23             0.030990957665418914                    0.030990957665418914                      0.030990957665418914                 4.9485407807997524e-20       1.2493254518046276e-16 -4.2861353152517759e-16  50.007616402258023   50.000000000000007   0.87275325000000015  0                      1                            1                          0                    0.99503915421658173  0.099484046214288829 -6.1320457755459223e-26
                 247102.75893845162               -3.0377258099326012e-16            -1.4110019762152243e-19              2                                    0                                  1                                   1                                      3                                 1.2890106937263244e-21             0.24792341791686701                    0.24792341791686701                      0.24792341791686701                 4.9350410068235808e-20       1.2479511097473041e-16 -4.286183313887525e-16  50.007616402258023   50.000000000000007   0.87275325000000015  0                      2                            2                          0                    0.99505272073876083  0.099346318354261873  3.466219559440169e-24
                 202885.89482342228               -3.0478751663537608e-16            -1.0149356421159711e-18              3                                    0                                  1                                   1                                      4                                 8.2372128944138737e-20             1.9812179748140624                     1.9812179748140624                       1.9812179748140624                  4.8383675395389052e-20       1.2373353813518131e-16 -4.2865181057489692e-16  50.007616402258023   50.000000000000007   0.87275325000000015  0                      3                            3                          0                    0.99514983217610242  0.098243322466671154  8.2363056943122077e-24
                 161353.8254649076                -3.0642244904790756e-16            -1.6349324125314832e-18              4                                    0                                  1                                   1                                      5                                 8.0995814396136661e-19             6.1934803769797409                     6.1934803769797409                       6.1934803769797409                  4.6844476835546331e-20       1.2141823621412057e-16 -4.2869748788282503e-16  50.007616402258023   50.000000000000007   0.87275325000000015  0                      4                            4                          0                    0.99530368662639501  0.09551470743227411 -5.3703811423728506e-24
                 159941.34238535233               -3.0643156785675189e-16            -9.1188088443044071e-21              5                                    0                                  2                                   0                                      6                                 8.105791953921049e-19             6.1762277731993009                     6.1934803769797409                       6.1934803769797409                  4.6824718806586964e-20       1.214091613393449e-16 -4.2869813311029547e-16  50.007616402258023   50.000000000000007   0.87275325000000015  0                      5                            5                          0                    0.99530566467588533  0.095487350301879645 -1.6214419987548799e-23
                 150151.99350434737               -3.0649430413859741e-16            -6.2736281845538386e-20              6                                    0                                  2                                   0                                      7                                 8.1581248591919548e-19             6.0554702134301532                     6.1934803769797409                       6.1934803769797409                  4.6687661374828364e-20       1.2134579064908386e-16 -4.287025949349753e-16  50.007616402258023   50.000000000000007   0.87275325000000015  0                      6                            6                          0                    0.99531938388023267  0.095295837529935229  1.330202098341583e-22
                 117648.96615272705               -3.0692715469611447e-16            -4.328505575170192e-19              7                                    0                                  2                                   0                                      8                                 9.1343223302319596e-19             7.7309037107249114                     7.7309037107249114                       7.7309037107249114                  4.5669673121944168e-20       1.208485873076472e-16 -4.2873484390990677e-16  50.007616402258023   50.000000000000007   0.87275325000000015  0                      7                            7                          0                    0.99542113873331906  0.093762916457068898  7.797380312483657e-23
                 300517.67852300633               -3.0747215213659382e-16            -5.4499744047939358e-19              8                                    0                                  2                                   0                                      9                                 1.573307927651379e-18             13.223421713697689                     13.223421713697689                       13.223421713697689                  4.3748863577226472e-20       1.1969916207298491e-16 -4.2878837100080738e-16  50.007616402258023   50.000000000000007   0.87275325000000015  0                      8                            8                          0                    0.99561169627805379  0.089977428520516614  1.6204092331505773e-22
                 297565.20843290346               -3.0748428897967985e-16            -1.2136843086003189e-20              9                                    0                                  3                                   0                                      10                                1.5655303246396351e-18             13.160225368511441                     13.223421713697689                       13.223421713697689                  4.3739851194003317e-20       1.196951054233865e-16 -4.2878866457889999e-16  50.007616402258023   50.000000000000007   0.87275325000000015  0                      9                            9                          0                    0.9956125946070975   0.089965077418223779 -3.2315235758624324e-22
                 276910.58298323554               -3.0756561956712578e-16            -8.1330587445942412e-20              10                                   0                                  3                                   0                                      11                                1.5145079410929829e-18             12.717853163879214                     13.223421713697689                       13.223421713697689                  4.3677637267047883e-20       1.1966687561057161e-16 -4.2879068075605744e-16  50.007616402258023   50.000000000000007   0.87275325000000015  0                      10                           10                         0                    0.9956187927260236   0.089878607683561901  1.6751458101786083e-22
# Table End
