# ODT 1.0
# Table Start
# Title: mmArchive Data Table, Wed Jun 16 18:48:24 EDT 2010
# Columns: {Oxs_RungeKuttaEvolve:evolve:Total energy} {Oxs_RungeKuttaEvolve:evolve:Energy calc count} {Oxs_RungeKuttaEvolve:evolve:Max dm/dt} Oxs_RungeKuttaEvolve:evolve:dE/dt {Oxs_RungeKuttaEvolve:evolve:Delta E} Oxs_CubicAnisotropy::Energy Oxs_UniformExchange::Energy {Oxs_UniformExchange::Max Spin Ang} {Oxs_UniformExchange::Stage Max Spin Ang} {Oxs_UniformExchange::Run Max Spin Ang} Oxs_UZeeman::Energy  Oxs_UZeeman::B       Oxs_UZeeman::Bx      Oxs_UZeeman::By      Oxs_UZeeman::Bz      Oxs_Demag::Energy    Oxs_TimeDriver::Iteration {Oxs_TimeDriver::Stage iteration} Oxs_TimeDriver::Stage Oxs_TimeDriver::mx   Oxs_TimeDriver::my   Oxs_TimeDriver::mz   {Oxs_TimeDriver::Last time step} {Oxs_TimeDriver::Simulation time}
# Units:                       J                                            {}                                        deg/ns                                 J/s                                  J                                J                           J                              deg                                    deg                                      deg                            J                 mT                   mT                   mT                   mT                     J                       {}                            {}                          {}                   {}                   {}                   {}                          s                                 s                
                       4.4516625485014547e-18                          1                                           1784.5687344460746                  -1.8014725032438435e-08                 0                               -3.6857142857142863e-20         0                               0                                      0                                        0                              0                    0                    0                    0                    0                    4.4885196913585975e-18    0                             0                           0                    -0.89087080637474791 -0.44543540318737396 -0.089087080637474794        0                                0                         
                       4.4515667466352524e-18                          7                                           1778.869645299693                   -1.797800444122635e-08                -9.5801866202331497e-23             -3.685948653044449e-20         2.6066871445424565e-25             0.0051479826604804513                    0.0051479826604804513                      0.0051479826604804513            0                    0                    0                    0                    0                    4.4884259724969827e-18    1                             1                           0                    -0.89086314012414369 -0.44543668478499787 -0.089157294488965311        5.3234150171014704e-15              5.3234150171014704e-15       
# Table End
