# ODT 1.0
# Table Start
# Title: mmArchive Data Table, Wed Jun 16 18:48:07 EDT 2010
# Columns: {Oxs_RungeKuttaEvolve:evolve:Total energy} {Oxs_RungeKuttaEvolve:evolve:Energy calc count} {Oxs_RungeKuttaEvolve:evolve:Max dm/dt} Oxs_RungeKuttaEvolve:evolve:dE/dt {Oxs_RungeKuttaEvolve:evolve:Delta E} Oxs_CubicAnisotropy::Energy Oxs_UniformExchange::Energy {Oxs_UniformExchange::Max Spin Ang} {Oxs_UniformExchange::Stage Max Spin Ang} {Oxs_UniformExchange::Run Max Spin Ang} Oxs_UZeeman::Energy  Oxs_UZeeman::B       Oxs_UZeeman::Bx      Oxs_UZeeman::By      Oxs_UZeeman::Bz      Oxs_Demag::Energy    Oxs_TimeDriver::Iteration {Oxs_TimeDriver::Stage iteration} Oxs_TimeDriver::Stage Oxs_TimeDriver::mx   Oxs_TimeDriver::my   Oxs_TimeDriver::mz   {Oxs_TimeDriver::Last time step} {Oxs_TimeDriver::Simulation time}
# Units:                       J                                            {}                                        deg/ns                                 J/s                                  J                                J                           J                              deg                                    deg                                      deg                            J                 mT                   mT                   mT                   mT                     J                       {}                            {}                          {}                   {}                   {}                   {}                          s                                 s                
                       1.7560595102137725e-17                          1                                           2029.2517125181701                  -2.5535331686938761e-07                 0                               -1.4600000000000001e-19         0                               0                                      0                                        0                              0                    0                    0                    0                    0                    1.7706595102137724e-17    0                             0                           0                    -0.8908708063747478  -0.4454354031873739  -0.08908708063747478        0                                0                         
                       1.7559399816522228e-17                          7                                           2031.6781410563713                  -2.5528586234051453e-07                -1.195285615497544e-21             -1.4603350780707226e-19         5.9736731249916695e-25             0.0046302781646677836                    0.0046302781646677836                      0.0046302781646677836            0                    0                    0                    0                    0                    1.7705432726961986e-17    1                             1                           0                    -0.89083905538300423 -0.44547369411017113 -0.089213023298697638        4.6815286351100891e-15              4.6815286351100891e-15       
# Table End
