# ODT 1.0
# Table Start
# Title: mmArchive Data Table, Wed Jun 16 18:47:22 EDT 2010
# Columns: {Oxs_RungeKuttaEvolve:evolve:Total energy} {Oxs_RungeKuttaEvolve:evolve:Energy calc count} {Oxs_RungeKuttaEvolve:evolve:Max dm/dt} Oxs_RungeKuttaEvolve:evolve:dE/dt {Oxs_RungeKuttaEvolve:evolve:Delta E} Oxs_CubicAnisotropy::Energy Oxs_UniformExchange::Energy {Oxs_UniformExchange::Max Spin Ang} {Oxs_UniformExchange::Stage Max Spin Ang} {Oxs_UniformExchange::Run Max Spin Ang} Oxs_UZeeman::Energy  Oxs_UZeeman::B       Oxs_UZeeman::Bx      Oxs_UZeeman::By      Oxs_UZeeman::Bz      Oxs_Demag::Energy    Oxs_TimeDriver::Iteration {Oxs_TimeDriver::Stage iteration} Oxs_TimeDriver::Stage Oxs_TimeDriver::mx   Oxs_TimeDriver::my   Oxs_TimeDriver::mz   {Oxs_TimeDriver::Last time step} {Oxs_TimeDriver::Simulation time}
# Units:                       J                                            {}                                        deg/ns                                 J/s                                  J                                J                           J                              deg                                    deg                                      deg                            J                 mT                   mT                   mT                   mT                     J                       {}                            {}                          {}                   {}                   {}                   {}                          s                                 s                
                       3.6158122010715262e-21                          1                                           961.95517079235401                  -1.0892729012076406e-11                 0                               -3.5714285714285719e-23         0                               0                                      0                                        0                              0                    0                    0                    0                    0                    3.651526486785812e-21    0                             0                           0                    -0.89087080637474791 -0.44543540318737396 -0.089087080637474794        0                                0                         
                       3.615705773822673e-21                          7                                           953.34922443119888                  -1.0664988230090998e-11                -1.06427248853242e-25             -3.5719454100932532e-23         2.8248528659365767e-27             0.0064289987963702753                    0.0064289987963702753                      0.0064289987963702753            0                    0                    0                    0                    0                    3.6514224030707393e-21    1                             1                           0                    -0.89085172133361867 -0.44545182905287917 -0.089195715251598542        9.8757200838942768e-15              9.8757200838942768e-15       
# Table End
