# ODT 1.0
# Table Start
# Title: mmArchive Data Table, Wed Jun 16 18:48:23 EDT 2010
# Columns: {Oxs_RungeKuttaEvolve:evolve:Total energy} {Oxs_RungeKuttaEvolve:evolve:Energy calc count} {Oxs_RungeKuttaEvolve:evolve:Max dm/dt} Oxs_RungeKuttaEvolve:evolve:dE/dt {Oxs_RungeKuttaEvolve:evolve:Delta E} Oxs_CubicAnisotropy::Energy Oxs_UniformExchange::Energy {Oxs_UniformExchange::Max Spin Ang} {Oxs_UniformExchange::Stage Max Spin Ang} {Oxs_UniformExchange::Run Max Spin Ang} Oxs_UZeeman::Energy  Oxs_UZeeman::B       Oxs_UZeeman::Bx      Oxs_UZeeman::By      Oxs_UZeeman::Bz      Oxs_Demag::Energy    Oxs_TimeDriver::Iteration {Oxs_TimeDriver::Stage iteration} Oxs_TimeDriver::Stage Oxs_TimeDriver::mx   Oxs_TimeDriver::my   Oxs_TimeDriver::mz   {Oxs_TimeDriver::Last time step} {Oxs_TimeDriver::Simulation time}
# Units:                       J                                            {}                                        deg/ns                                 J/s                                  J                                J                           J                              deg                                    deg                                      deg                            J                 mT                   mT                   mT                   mT                     J                       {}                            {}                          {}                   {}                   {}                   {}                          s                                 s                
                       4.4167262505429732e-18                          1                                           1784.5679961090523                  -1.7874676989183127e-08                 0                               -3.6571428571428577e-20         0                               0                                      0                                        0                              0                    0                    0                    0                    0                    4.4532976791144019e-18    0                             0                           0                    -0.89087080637474791 -0.44543540318737396 -0.089087080637474794        0                                0                         
                       4.4166311934396813e-18                          7                                           1778.8689092475699                  -1.7838230552684086e-08                -9.5057103292091032e-23             -3.6573754435413762e-20         2.5871026807982329e-25             0.0051479847849951309                    0.0051479847849951309                      0.0051479847849951309            0                    0                    0                    0                    0                    4.4532046891648272e-18    1                             1                           0                    -0.89086313838617037 -0.4454366895632188  -0.089157287978481173        5.3234172195809505e-15              5.3234172195809505e-15       
# Table End
