# ODT 1.0
# Table Start
# Title: mmArchive Data Table, Wed Jun 16 18:48:20 EDT 2010
# Columns: {Oxs_RungeKuttaEvolve:evolve:Total energy} {Oxs_RungeKuttaEvolve:evolve:Energy calc count} {Oxs_RungeKuttaEvolve:evolve:Max dm/dt} Oxs_RungeKuttaEvolve:evolve:dE/dt {Oxs_RungeKuttaEvolve:evolve:Delta E} Oxs_CubicAnisotropy::Energy Oxs_UniformExchange::Energy {Oxs_UniformExchange::Max Spin Ang} {Oxs_UniformExchange::Stage Max Spin Ang} {Oxs_UniformExchange::Run Max Spin Ang} Oxs_UZeeman::Energy  Oxs_UZeeman::B       Oxs_UZeeman::Bx      Oxs_UZeeman::By      Oxs_UZeeman::Bz      Oxs_Demag::Energy    Oxs_TimeDriver::Iteration {Oxs_TimeDriver::Stage iteration} Oxs_TimeDriver::Stage Oxs_TimeDriver::mx   Oxs_TimeDriver::my   Oxs_TimeDriver::mz   {Oxs_TimeDriver::Last time step} {Oxs_TimeDriver::Simulation time}
# Units:                       J                                            {}                                        deg/ns                                 J/s                                  J                                J                           J                              deg                                    deg                                      deg                            J                 mT                   mT                   mT                   mT                     J                       {}                            {}                          {}                   {}                   {}                   {}                          s                                 s                
                       2.1810650927194514e-18                          1                                           1784.4123727675435                  -8.9123235969802146e-09                 0                               -1.8285714285714288e-20         0                               0                                      0                                        0                              0                    0                    0                    0                    0                    2.1993508070051657e-18    0                             0                           0                    -0.89087080637474803 -0.44543540318737401 -0.089087080637474808        0                                0                         
                       2.1810176950039445e-18                          7                                           1778.7137503182455                  -8.8934237045995329e-09                -4.7397715507011805e-23             -1.828689999543806e-20         1.3337876828471387e-25             0.0051484332510153448                    0.0051484332510153448                      0.0051484332510153448            0                    0                    0                    0                    0                    2.1993044616206143e-18    1                             1                           0                    -0.89086291745318869 -0.44543729809008242 -0.089156454782391384        5.3238814889329234e-15              5.3238814889329234e-15       
# Table End
