# ODT 1.0
# Table Start
# Title: mmArchive Data Table, Wed Jun 16 18:47:32 EDT 2010
# Columns: {Oxs_RungeKuttaEvolve:evolve:Total energy} {Oxs_RungeKuttaEvolve:evolve:Energy calc count} {Oxs_RungeKuttaEvolve:evolve:Max dm/dt} Oxs_RungeKuttaEvolve:evolve:dE/dt {Oxs_RungeKuttaEvolve:evolve:Delta E} Oxs_CubicAnisotropy::Energy Oxs_UniformExchange::Energy {Oxs_UniformExchange::Max Spin Ang} {Oxs_UniformExchange::Stage Max Spin Ang} {Oxs_UniformExchange::Run Max Spin Ang} Oxs_UZeeman::Energy  Oxs_UZeeman::B       Oxs_UZeeman::Bx      Oxs_UZeeman::By      Oxs_UZeeman::Bz      Oxs_Demag::Energy    Oxs_TimeDriver::Iteration {Oxs_TimeDriver::Stage iteration} Oxs_TimeDriver::Stage Oxs_TimeDriver::mx   Oxs_TimeDriver::my   Oxs_TimeDriver::mz   {Oxs_TimeDriver::Last time step} {Oxs_TimeDriver::Simulation time}
# Units:                       J                                            {}                                        deg/ns                                 J/s                                  J                                J                           J                              deg                                    deg                                      deg                            J                 mT                   mT                   mT                   mT                     J                       {}                            {}                          {}                   {}                   {}                   {}                          s                                 s                
                       3.4360136755469423e-19                          1                                           1882.5199810377032                  -1.1562035086644587e-09                 0                               -4.2857142857142862e-21         0                               0                                      0                                        0                              0                    0                    0                    0                    0                    3.4788708184040854e-19    0                             0                           0                    -0.89087080637474791 -0.44543540318737396 -0.089087080637474794        0                                0                         
                       3.4359554333506606e-19                          7                                           1874.8149439628201                  -1.1520589108893469e-09                -5.8242196281632887e-24             -4.285712301763085e-21         2.60031097348173e-26             0.004896909888660028                    0.004896909888660028                      0.004896909888660028            0                    0                    0                    0                    0                    3.478812296337194e-19    1                             1                           0                    -0.89087121111845713 -0.44543250504107157 -0.089097503776486425        5.0464271804240324e-15              5.0464271804240324e-15       
# Table End
