# ODT 1.0
# Table Start
# Title: mmArchive Data Table, Wed Jun 16 18:48:40 EDT 2010
# Columns: {Oxs_CGEvolve:evolve:Max mxHxm} {Oxs_CGEvolve:evolve:Total energy} {Oxs_CGEvolve:evolve:Delta E} {Oxs_CGEvolve:evolve:Bracket count} {Oxs_CGEvolve:evolve:Line min count} {Oxs_CGEvolve:evolve:Cycle count} {Oxs_CGEvolve:evolve:Cycle sub count} {Oxs_CGEvolve:evolve:Energy calc count} Oxs_UniformExchange::Energy {Oxs_UniformExchange::Max Spin Ang} {Oxs_UniformExchange::Stage Max Spin Ang} {Oxs_UniformExchange::Run Max Spin Ang} Oxs_UniaxialAnisotropy::Energy Oxs_DemagOld::Energy Oxs_UZeeman::Energy  Oxs_UZeeman::B       Oxs_UZeeman::Bx      Oxs_UZeeman::By      Oxs_UZeeman::Bz      Oxs_MinDriver::Iteration {Oxs_MinDriver::Stage iteration} Oxs_MinDriver::Stage Oxs_MinDriver::mx    Oxs_MinDriver::my    Oxs_MinDriver::mz   
# Units:                 A/m                               J                                J                               {}                                   {}                                 {}                                  {}                                     {}                                 J                              deg                                    deg                                      deg                                 J                         J                    J                 mT                   mT                   mT                   mT                        {}                           {}                         {}                 {}                   {}                   {}           
                 250996.66895771612               -5.4824547319491477e-17            -5.4824547319491477e-17              0                                    0                                  1                                   1                                      1                                 0                               0                                      0                                        0                                   1.2376237623762377e-20       5.2316285107908329e-17 -1.0715320866502357e-16  50.007616402258023   50.000000000000007   0.87275325000000015  0                      0                            0                          0                    0.99503719020998893  0.099503719020998901  0                  
                 250203.1450435803                -5.4834868775613044e-17            -1.0321456121564925e-20              1                                    0                                  1                                   1                                      2                                 1.0121302297974393e-23             0.031221211045646201                    0.031221211045646201                      0.031221211045646201                 1.2369910712412662e-20       5.2306185419614494e-17 -1.0715343422724225e-16  50.007616402258023   50.000000000000007   0.87275325000000015  0                      1                            1                          0                    0.99503973357623443  0.099478218511643554  6.7452503531005147e-25
                 244643.36977824703               -5.490621445346207e-17            -7.1345677849027401e-20              2                                    0                                  1                                   1                                      3                                 6.4774752433855295e-22             0.24976535334243569                    0.24976535334243569                      0.24976535334243569                 1.2326541381058862e-20       5.2235784509054622e-17 -1.0715497325142209e-16  50.007616402258023   50.000000000000007   0.87275325000000015  0                      2                            2                          0                    0.99505716652025999  0.099299677782807988  1.0986044115767537e-23
                 199982.48380684477               -5.541969177401443e-17            -5.1347732055236058e-19              3                                    0                                  1                                   1                                      4                                 4.1391169734693231e-20             1.995906667272906                      1.995906667272906                        1.995906667272906                   1.2037375851545997e-20       5.169165399054155e-17 -1.0716477431014223e-16  50.007616402258023   50.000000000000007   0.87275325000000015  0                      3                            3                          0                    0.99517331228317174  0.097868968492711872  1.1670251328617924e-23
                 158670.05749760385               -5.6249065267416375e-17            -8.293734934019392e-19              4                                    0                                  1                                   1                                      5                                 4.0681286313702044e-19             6.2385307989103405                     6.2385307989103405                       6.2385307989103405                  1.1755035095894241e-20       5.0502498243698995e-17 -1.0717013140934829e-16  50.007616402258023   50.000000000000007   0.87275325000000015  0                      4                            4                          0                    0.99528504143317575  0.094322968004178775  1.0616830412229403e-22
                 157213.81612234682               -5.6253877568051129e-17            -4.8123006347527588e-21              5                                    0                                  2                                   0                                      6                                 4.0702468181054797e-19             6.2203248666189968                     6.2385307989103405                       6.2385307989103405                  1.1750314692968688e-20       5.0497616283016416e-17 -1.0717026884757106e-16  50.007616402258023   50.000000000000007   0.87275325000000015  0                      5                            5                          0                    0.99528692255671203  0.094288443444070308  8.3447460827639677e-23
                 147123.42067440765               -5.6286974093182549e-17            -3.3096525131430368e-20              6                                    0                                  2                                   0                                      7                                 4.0898878092330579e-19             6.0928974294015026                     6.2385307989103405                       6.2385307989103405                  1.1717940928691103e-20       5.0463520724491358e-17 -1.0717120153952591e-16  50.007616402258023   50.000000000000007   0.87275325000000015  0                      6                            6                          0                    0.99529981763811526  0.09404674413375759  1.6028522178774353e-22
                 114429.86815969879               -5.6514563543735686e-17            -2.2758945055313151e-19              7                                    0                                  2                                   0                                      8                                 4.5499582720570436e-19             7.801714872059696                      7.801714872059696                        7.801714872059696                   1.1500961734786983e-20       5.019575541890368e-17 -1.0717681575157986e-16  50.007616402258023   50.000000000000007   0.87275325000000015  0                      7                            7                          0                    0.99538582421711042  0.092111411862789788  1.0162413546336317e-22
                 307209.48934231739               -5.6794293384949067e-17            -2.7972984121337896e-19              8                                    0                                  2                                   0                                      9                                 7.9585914143876508e-19             13.368617919872342                     13.368617919872342                       13.368617919872342                  1.1280019590263432e-20       4.9575333359931706e-17 -1.0717676590590981e-16  50.007616402258023   50.000000000000007   0.87275325000000015  0                      8                            8                          0                    0.99546887544195917  0.087326846150750245 -1.1566974768187676e-22
                 304219.48651655344               -5.6800674405324869e-17            -6.3810203758028944e-21              9                                    0                                  3                                   0                                      10                                7.9171358725079538e-19             13.304660486330013                     13.368617919872342                       13.368617919872342                  1.1278125430864065e-20       4.9573153100642388e-17 -1.0717681921864892e-16  50.007616402258023   50.000000000000007   0.87275325000000015  0                      9                            9                          0                    0.99546962052549071  0.087312572295297361  3.6807766137340071e-22
                 283299.1318289534                -5.6843445536727647e-17            -4.2771131402775161e-20              10                                   0                                  3                                   0                                      11                                7.6448266709965113e-19             12.857057511320445                     13.368617919872342                       13.368617919872342                  1.1265313367155013e-20       4.9557978932035076e-17 -1.0717717244922953e-16  50.007616402258023   50.000000000000007   0.87275325000000015  0                      10                           10                         0                    0.99547465087093245  0.087212631127755902 -2.2225115804589178e-22
# Table End
