# ODT 1.0
# Table Start
# Title: mmArchive Data Table, Wed Jun 16 18:47:20 EDT 2010
# Columns: {Oxs_RungeKuttaEvolve:evolve:Total energy} {Oxs_RungeKuttaEvolve:evolve:Energy calc count} {Oxs_RungeKuttaEvolve:evolve:Max dm/dt} Oxs_RungeKuttaEvolve:evolve:dE/dt {Oxs_RungeKuttaEvolve:evolve:Delta E} Oxs_CubicAnisotropy::Energy Oxs_UniformExchange::Energy {Oxs_UniformExchange::Max Spin Ang} {Oxs_UniformExchange::Stage Max Spin Ang} {Oxs_UniformExchange::Run Max Spin Ang} Oxs_UZeeman::Energy  Oxs_UZeeman::B       Oxs_UZeeman::Bx      Oxs_UZeeman::By      Oxs_UZeeman::Bz      Oxs_Demag::Energy    Oxs_TimeDriver::Iteration {Oxs_TimeDriver::Stage iteration} Oxs_TimeDriver::Stage Oxs_TimeDriver::mx   Oxs_TimeDriver::my   Oxs_TimeDriver::mz   {Oxs_TimeDriver::Last time step} {Oxs_TimeDriver::Simulation time}
# Units:                       J                                            {}                                        deg/ns                                 J/s                                  J                                J                           J                              deg                                    deg                                      deg                            J                 mT                   mT                   mT                   mT                     J                       {}                            {}                          {}                   {}                   {}                   {}                          s                                 s                
                       9.9026421926868415e-22                          1                                           703.4312664148448                   -2.5700433426575819e-12                 0                               -8.9285714285714298e-24         0                               0                                      0                                        0                              0                    0                    0                    0                    0                    9.991927906972556e-22    0                             0                           0                    -0.89087080637474791 -0.44543540318737396 -0.089087080637474794        0                                0                         
                       9.9022950324913157e-22                          7                                           703.57308384781868                  -2.5710797301701687e-12                -3.471601955247567e-26             -8.9301883834929049e-24         0                               0                                      0                                        0                              0                    0                    0                    0                    0                    9.9915969163262447e-22    1                             1                           0                    -0.89084781390559498 -0.4454486195525682  -0.08925076917502632        1.3505228518513742e-14              1.3505228518513742e-14       
# Table End
