# ODT 1.0
# Table Start
# Title: mmArchive Data Table, Wed Jun 16 18:47:55 EDT 2010
# Columns: {Oxs_RungeKuttaEvolve:evolve:Total energy} {Oxs_RungeKuttaEvolve:evolve:Energy calc count} {Oxs_RungeKuttaEvolve:evolve:Max dm/dt} Oxs_RungeKuttaEvolve:evolve:dE/dt {Oxs_RungeKuttaEvolve:evolve:Delta E} Oxs_CubicAnisotropy::Energy Oxs_UniformExchange::Energy {Oxs_UniformExchange::Max Spin Ang} {Oxs_UniformExchange::Stage Max Spin Ang} {Oxs_UniformExchange::Run Max Spin Ang} Oxs_UZeeman::Energy  Oxs_UZeeman::B       Oxs_UZeeman::Bx      Oxs_UZeeman::By      Oxs_UZeeman::Bz      Oxs_Demag::Energy    Oxs_TimeDriver::Iteration {Oxs_TimeDriver::Stage iteration} Oxs_TimeDriver::Stage Oxs_TimeDriver::mx   Oxs_TimeDriver::my   Oxs_TimeDriver::mz   {Oxs_TimeDriver::Last time step} {Oxs_TimeDriver::Simulation time}
# Units:                       J                                            {}                                        deg/ns                                 J/s                                  J                                J                           J                              deg                                    deg                                      deg                            J                 mT                   mT                   mT                   mT                     J                       {}                            {}                          {}                   {}                   {}                   {}                          s                                 s                
                       5.0188445202028871e-19                          1                                           1894.1572988315868                  -4.214568197410232e-09                 0                               -4.5714285714285721e-21         0                               0                                      0                                        0                              0                    0                    0                    0                    0                    5.064558805917172e-19    0                             0                           0                    -0.89087080637474791 -0.44543540318737396 -0.089087080637474794        0                                0                         
                       5.0186332617073339e-19                          7                                           1891.7679023264632                  -4.2097960385010013e-09                -2.112584955530948e-23             -4.5721026030559574e-21         3.241897904531908e-26             0.0049354988232427942                    0.0049354988232427942                      0.0049354988232427942            0                    0                    0                    0                    0                    5.0643539635481024e-19    1                             1                           0                    -0.89085068917486754 -0.44545768485930903 -0.089176776158267482        5.0154229566151059e-15              5.0154229566151059e-15       
# Table End
