# ODT 1.0
# Table Start
# Title: mmArchive Data Table, Wed Jun 16 18:48:03 EDT 2010
# Columns: {Oxs_RungeKuttaEvolve:evolve:Total energy} {Oxs_RungeKuttaEvolve:evolve:Energy calc count} {Oxs_RungeKuttaEvolve:evolve:Max dm/dt} Oxs_RungeKuttaEvolve:evolve:dE/dt {Oxs_RungeKuttaEvolve:evolve:Delta E} Oxs_CubicAnisotropy::Energy Oxs_UniformExchange::Energy {Oxs_UniformExchange::Max Spin Ang} {Oxs_UniformExchange::Stage Max Spin Ang} {Oxs_UniformExchange::Run Max Spin Ang} Oxs_UZeeman::Energy  Oxs_UZeeman::B       Oxs_UZeeman::Bx      Oxs_UZeeman::By      Oxs_UZeeman::Bz      Oxs_Demag::Energy    Oxs_TimeDriver::Iteration {Oxs_TimeDriver::Stage iteration} Oxs_TimeDriver::Stage Oxs_TimeDriver::mx   Oxs_TimeDriver::my   Oxs_TimeDriver::mz   {Oxs_TimeDriver::Last time step} {Oxs_TimeDriver::Simulation time}
# Units:                       J                                            {}                                        deg/ns                                 J/s                                  J                                J                           J                              deg                                    deg                                      deg                            J                 mT                   mT                   mT                   mT                     J                       {}                            {}                          {}                   {}                   {}                   {}                          s                                 s                
                       8.7700851067525531e-18                          1                                           2028.4408891133392                  -1.2549275051584943e-07                 0                               -7.3142857142857153e-20         0                               0                                      0                                        0                              0                    0                    0                    0                    0                    8.8432279638954105e-18    0                             0                           0                    -0.89087080637474803 -0.44543540318737401 -0.08908708063747478        0                                0                         
                       8.7694974565175585e-18                          7                                           2030.8620268528639                  -1.2545759385465745e-07                -5.8765023499376559e-22             -7.3159400001824567e-20         3.0457242685951315e-25             0.0046321171121757685                    0.0046321171121757685                      0.0046321171121757685            0                    0                    0                    0                    0                    8.8426565519469563e-18    1                             1                           0                    -0.89083952676201394 -0.44547305396886167 -0.089211512270664428        4.6833999703844399e-15              4.6833999703844399e-15       
# Table End
