# ODT 1.0
# Table Start
# Title: mmArchive Data Table, Wed Jun 16 18:47:19 EDT 2010
# Columns: {Oxs_RungeKuttaEvolve:evolve:Total energy} {Oxs_RungeKuttaEvolve:evolve:Energy calc count} {Oxs_RungeKuttaEvolve:evolve:Max dm/dt} Oxs_RungeKuttaEvolve:evolve:dE/dt {Oxs_RungeKuttaEvolve:evolve:Delta E} Oxs_CubicAnisotropy::Energy Oxs_UniformExchange::Energy {Oxs_UniformExchange::Max Spin Ang} {Oxs_UniformExchange::Stage Max Spin Ang} {Oxs_UniformExchange::Run Max Spin Ang} Oxs_UZeeman::Energy  Oxs_UZeeman::B       Oxs_UZeeman::Bx      Oxs_UZeeman::By      Oxs_UZeeman::Bz      Oxs_Demag::Energy    Oxs_TimeDriver::Iteration {Oxs_TimeDriver::Stage iteration} Oxs_TimeDriver::Stage Oxs_TimeDriver::mx   Oxs_TimeDriver::my   Oxs_TimeDriver::mz   {Oxs_TimeDriver::Last time step} {Oxs_TimeDriver::Simulation time}
# Units:                       J                                            {}                                        deg/ns                                 J/s                                  J                                J                           J                              deg                                    deg                                      deg                            J                 mT                   mT                   mT                   mT                     J                       {}                            {}                          {}                   {}                   {}                   {}                          s                                 s                
                       1.0251897564056746e-21                          1                                           734.19277573835507                  -3.0618388202163704e-12                 0                               -1.785714285714286e-23         0                               0                                      0                                        0                              0                    0                    0                    0                    0                    1.0430468992628175e-21    0                             0                           0                    -0.89087080637474791 -0.44543540318737396 -0.089087080637474794        0                                0                         
                       1.0251507033298678e-21                          7                                           719.24718129739608                  -2.9763294326021196e-12                -3.9053075806960183e-26             -1.7853505640945529e-23         1.3718293871257157e-27             0.0064574463390592723                    0.0064574463390592723                      0.0064574463390592723            0                    0                    0                    0                    0                    1.043002837141426e-21    1                             1                           0                    -0.89089946217575455 -0.44539743946957172 -0.088990258081261528        1.2939380928184892e-14              1.2939380928184892e-14       
# Table End
