# ODT 1.0
# Table Start
# Title: mmArchive Data Table, Wed Jun 16 18:48:15 EDT 2010
# Columns: {Oxs_RungeKuttaEvolve:evolve:Total energy} {Oxs_RungeKuttaEvolve:evolve:Energy calc count} {Oxs_RungeKuttaEvolve:evolve:Max dm/dt} Oxs_RungeKuttaEvolve:evolve:dE/dt {Oxs_RungeKuttaEvolve:evolve:Delta E} Oxs_CubicAnisotropy::Energy Oxs_UniformExchange::Energy {Oxs_UniformExchange::Max Spin Ang} {Oxs_UniformExchange::Stage Max Spin Ang} {Oxs_UniformExchange::Run Max Spin Ang} Oxs_UZeeman::Energy  Oxs_UZeeman::B       Oxs_UZeeman::Bx      Oxs_UZeeman::By      Oxs_UZeeman::Bz      Oxs_Demag::Energy    Oxs_TimeDriver::Iteration {Oxs_TimeDriver::Stage iteration} Oxs_TimeDriver::Stage Oxs_TimeDriver::mx   Oxs_TimeDriver::my   Oxs_TimeDriver::mz   {Oxs_TimeDriver::Last time step} {Oxs_TimeDriver::Simulation time}
# Units:                       J                                            {}                                        deg/ns                                 J/s                                  J                                J                           J                              deg                                    deg                                      deg                            J                 mT                   mT                   mT                   mT                     J                       {}                            {}                          {}                   {}                   {}                   {}                          s                                 s                
                       1.3085037081159663e-19                          1                                           1695.3809597575714                  -6.5703816448148156e-10                 0                               -1.4285714285714287e-21         0                               0                                      0                                        0                              0                    0                    0                    0                    0                    1.3227894224016808e-19    0                             0                           0                    -0.89087080637474791 -0.44543540318737396 -0.089087080637474794        0                                0                         
                       1.3084669669827805e-19                          7                                           1689.7886423908233                  -6.5434169415777798e-10                -3.6741133185903107e-24             -1.4286970507332139e-21         1.8980513737208088e-26             0.0054288947104267505                    0.0054288947104267505                      0.0054288947104267505            0                    0                    0                    0                    0                    1.3227537476849753e-19    1                             1                           0                    -0.89085885455915415 -0.44544830685605491 -0.089142038095570711        5.6034603581713215e-15              5.6034603581713215e-15       
# Table End
