# ODT 1.0
# Table Start
# Title: mmArchive Data Table, Wed Jun 16 18:47:38 EDT 2010
# Columns: {Oxs_RungeKuttaEvolve:evolve:Total energy} {Oxs_RungeKuttaEvolve:evolve:Energy calc count} {Oxs_RungeKuttaEvolve:evolve:Max dm/dt} Oxs_RungeKuttaEvolve:evolve:dE/dt {Oxs_RungeKuttaEvolve:evolve:Delta E} Oxs_CubicAnisotropy::Energy Oxs_UniformExchange::Energy {Oxs_UniformExchange::Max Spin Ang} {Oxs_UniformExchange::Stage Max Spin Ang} {Oxs_UniformExchange::Run Max Spin Ang} Oxs_UZeeman::Energy  Oxs_UZeeman::B       Oxs_UZeeman::Bx      Oxs_UZeeman::By      Oxs_UZeeman::Bz      Oxs_Demag::Energy    Oxs_TimeDriver::Iteration {Oxs_TimeDriver::Stage iteration} Oxs_TimeDriver::Stage Oxs_TimeDriver::mx   Oxs_TimeDriver::my   Oxs_TimeDriver::mz   {Oxs_TimeDriver::Last time step} {Oxs_TimeDriver::Simulation time}
# Units:                       J                                            {}                                        deg/ns                                 J/s                                  J                                J                           J                              deg                                    deg                                      deg                            J                 mT                   mT                   mT                   mT                     J                       {}                            {}                          {}                   {}                   {}                   {}                          s                                 s                
                       1.2474397725772236e-18                          1                                           1984.8778631948883                  -2.9549180866021116e-08                 0                               -3.6571428571428577e-20         0                               0                                      0                                        0                              0                    0                    0                    0                    0                    1.2840112011486521e-18    0                             0                           0                    -0.89087080637474791 -0.44543540318737396 -0.089087080637474794        0                                0                         
                       1.2472983746374783e-18                          7                                           1989.8510285516079                  -2.9536647913467708e-08                -1.4139793974521524e-22             -3.6565933851283879e-20         5.2029767480918197e-26             0.004777126774159297                    0.004777126774159297                      0.004777126774159297            0                    0                    0                    0                    0                    1.2838642564589948e-18    1                             1                           0                    -0.8908916077947171  -0.44541017643676162 -0.089005145805014826        4.7861887001493692e-15              4.7861887001493692e-15       
# Table End
