# ODT 1.0
# Table Start
# Title: mmArchive Data Table, Wed Jun 16 18:48:31 EDT 2010
# Columns: {Oxs_RungeKuttaEvolve:evolve:Total energy} {Oxs_RungeKuttaEvolve:evolve:Energy calc count} {Oxs_RungeKuttaEvolve:evolve:Max dm/dt} Oxs_RungeKuttaEvolve:evolve:dE/dt {Oxs_RungeKuttaEvolve:evolve:Delta E} Oxs_CubicAnisotropy::Energy Oxs_UniformExchange::Energy {Oxs_UniformExchange::Max Spin Ang} {Oxs_UniformExchange::Stage Max Spin Ang} {Oxs_UniformExchange::Run Max Spin Ang} Oxs_UZeeman::Energy  Oxs_UZeeman::B       Oxs_UZeeman::Bx      Oxs_UZeeman::By      Oxs_UZeeman::Bz      Oxs_Demag::Energy    Oxs_TimeDriver::Iteration {Oxs_TimeDriver::Stage iteration} Oxs_TimeDriver::Stage Oxs_TimeDriver::mx   Oxs_TimeDriver::my   Oxs_TimeDriver::mz   {Oxs_TimeDriver::Last time step} {Oxs_TimeDriver::Simulation time}
# Units:                       J                                            {}                                        deg/ns                                 J/s                                  J                                J                           J                              deg                                    deg                                      deg                            J                 mT                   mT                   mT                   mT                     J                       {}                            {}                          {}                   {}                   {}                   {}                          s                                 s                
                       1.7833423381888904e-17                          1                                           1784.6108222011462                  -7.1656249783122333e-08                 0                               -1.4628571428571431e-19         0                               0                                      0                                        0                              0                    0                    0                    0                    0                    1.7979709096174618e-17    0                             0                           0                    -0.8908708063747478  -0.4454354031873739  -0.08908708063747478        0                                0                         
                       1.7833042313113233e-17                          7                                           1778.9116002808962                  -7.1514530948607819e-08                -3.8106877567195913e-22             -1.4629487731081083e-19         1.0107873791415161e-24             0.0051478616210855884                    0.0051478616210855884                      0.0051478616210855884            0                    0                    0                    0                    0                    1.7979336179636665e-17    1                             1                           0                    -0.89086330837029715 -0.4454362228967243  -0.089157921380783517        5.3232894711927505e-15              5.3232894711927505e-15       
# Table End
