# ODT 1.0
# Table Start
# Title: mmArchive Data Table, Wed Jun 16 18:47:56 EDT 2010
# Columns: {Oxs_RungeKuttaEvolve:evolve:Total energy} {Oxs_RungeKuttaEvolve:evolve:Energy calc count} {Oxs_RungeKuttaEvolve:evolve:Max dm/dt} Oxs_RungeKuttaEvolve:evolve:dE/dt {Oxs_RungeKuttaEvolve:evolve:Delta E} Oxs_CubicAnisotropy::Energy Oxs_UniformExchange::Energy {Oxs_UniformExchange::Max Spin Ang} {Oxs_UniformExchange::Stage Max Spin Ang} {Oxs_UniformExchange::Run Max Spin Ang} Oxs_UZeeman::Energy  Oxs_UZeeman::B       Oxs_UZeeman::Bx      Oxs_UZeeman::By      Oxs_UZeeman::Bz      Oxs_Demag::Energy    Oxs_TimeDriver::Iteration {Oxs_TimeDriver::Stage iteration} Oxs_TimeDriver::Stage Oxs_TimeDriver::mx   Oxs_TimeDriver::my   Oxs_TimeDriver::mz   {Oxs_TimeDriver::Last time step} {Oxs_TimeDriver::Simulation time}
# Units:                       J                                            {}                                        deg/ns                                 J/s                                  J                                J                           J                              deg                                    deg                                      deg                            J                 mT                   mT                   mT                   mT                     J                       {}                            {}                          {}                   {}                   {}                   {}                          s                                 s                
                       1.0506069881821756e-18                          1                                           1975.3322661655013                  -1.1830731174707205e-08                 0                               -9.1428571428571442e-21         0                               0                                      0                                        0                              0                    0                    0                    0                    0                    1.0597498453250326e-18    0                             0                           0                    -0.89087080637474803 -0.44543540318737401 -0.089087080637474794        0                                0                         
                       1.0505501069165416e-18                          7                                           1977.2251005215485                  -1.1823893400766298e-08                -5.6881265633980735e-23             -9.1445612026973377e-21         4.9464352255947717e-26             0.0047527522715851561                    0.0047527522715851561                      0.0047527522715851561            0                    0                    0                    0                    0                    1.0596946186548866e-18    1                             1                           0                    -0.89084516548813308 -0.44546531101647541 -0.08919386242239824        4.8093174817831131e-15              4.8093174817831131e-15       
# Table End
