# ODT 1.0
# Table Start
# Title: mmArchive Data Table, Wed Jun 16 18:47:26 EDT 2010
# Columns: {Oxs_RungeKuttaEvolve:evolve:Total energy} {Oxs_RungeKuttaEvolve:evolve:Energy calc count} {Oxs_RungeKuttaEvolve:evolve:Max dm/dt} Oxs_RungeKuttaEvolve:evolve:dE/dt {Oxs_RungeKuttaEvolve:evolve:Delta E} Oxs_CubicAnisotropy::Energy Oxs_UniformExchange::Energy {Oxs_UniformExchange::Max Spin Ang} {Oxs_UniformExchange::Stage Max Spin Ang} {Oxs_UniformExchange::Run Max Spin Ang} Oxs_UZeeman::Energy  Oxs_UZeeman::B       Oxs_UZeeman::Bx      Oxs_UZeeman::By      Oxs_UZeeman::Bz      Oxs_Demag::Energy    Oxs_TimeDriver::Iteration {Oxs_TimeDriver::Stage iteration} Oxs_TimeDriver::Stage Oxs_TimeDriver::mx   Oxs_TimeDriver::my   Oxs_TimeDriver::mz   {Oxs_TimeDriver::Last time step} {Oxs_TimeDriver::Simulation time}
# Units:                       J                                            {}                                        deg/ns                                 J/s                                  J                                J                           J                              deg                                    deg                                      deg                            J                 mT                   mT                   mT                   mT                     J                       {}                            {}                          {}                   {}                   {}                   {}                          s                                 s                
                       2.0961133800909163e-18                          1                                           2166.0947243274281                  -3.1276164199235134e-08                 0                               -1.4285714285714288e-20         0                               0                                      0                                        0                              0                    0                    0                    0                    0                    2.1103990943766309e-18    0                             0                           0                    -0.89087080637474803 -0.44543540318737401 -0.089087080637474808        0                                0                         
                       2.0959762153130618e-18                          7                                           2166.3235037719473                  -3.1273732513668083e-08                -1.3716477785477025e-22             -1.4288840975604335e-20         4.5192024639035407e-26             0.0044944058955363646                    0.0044944058955363646                      0.0044944058955363646            0                    0                    0                    0                    0                    2.1102650110966413e-18    1                             1                           0                    -0.89084111422475343 -0.44546708085903131 -0.089225490018796441        4.3857731119998678e-15              4.3857731119998678e-15       
# Table End
