# ODT 1.0
# Table Start
# Title: mmArchive Data Table, Wed Jun 16 18:47:34 EDT 2010
# Columns: {Oxs_RungeKuttaEvolve:evolve:Total energy} {Oxs_RungeKuttaEvolve:evolve:Energy calc count} {Oxs_RungeKuttaEvolve:evolve:Max dm/dt} Oxs_RungeKuttaEvolve:evolve:dE/dt {Oxs_RungeKuttaEvolve:evolve:Delta E} Oxs_CubicAnisotropy::Energy Oxs_UniformExchange::Energy {Oxs_UniformExchange::Max Spin Ang} {Oxs_UniformExchange::Stage Max Spin Ang} {Oxs_UniformExchange::Run Max Spin Ang} Oxs_UZeeman::Energy  Oxs_UZeeman::B       Oxs_UZeeman::Bx      Oxs_UZeeman::By      Oxs_UZeeman::Bz      Oxs_Demag::Energy    Oxs_TimeDriver::Iteration {Oxs_TimeDriver::Stage iteration} Oxs_TimeDriver::Stage Oxs_TimeDriver::mx   Oxs_TimeDriver::my   Oxs_TimeDriver::mz   {Oxs_TimeDriver::Last time step} {Oxs_TimeDriver::Simulation time}
# Units:                       J                                            {}                                        deg/ns                                 J/s                                  J                                J                           J                              deg                                    deg                                      deg                            J                 mT                   mT                   mT                   mT                     J                       {}                            {}                          {}                   {}                   {}                   {}                          s                                 s                
                       5.2489715527970541e-19                          1                                           1969.8429587868234                  -3.5262168444053057e-09                 0                               -9.1428571428571442e-21         0                               0                                      0                                        0                              0                    0                    0                    0                    0                    5.3404001242256258e-19    0                             0                           0                    -0.89087080637474803 -0.44543540318737401 -0.089087080637474794        0                                0                         
                       5.2488016182889241e-19                          7                                           1973.9975933777353                  -3.5210390376488668e-09                -1.699345081298061e-23             -9.1421629968633042e-21         3.0015362305586246e-26             0.0047775591888601478                    0.0047775591888601478                      0.0047775591888601478            0                    0                    0                    0                    0                    5.3402229481039345e-19    1                             1                           0                    -0.89088148710897086 -0.44542125421951084 -0.089050991790305442        4.8227194749833311e-15              4.8227194749833311e-15       
# Table End
