# ODT 1.0
# Table Start
# Title: mmArchive Data Table, Wed Jun 16 18:47:37 EDT 2010
# Columns: {Oxs_RungeKuttaEvolve:evolve:Total energy} {Oxs_RungeKuttaEvolve:evolve:Energy calc count} {Oxs_RungeKuttaEvolve:evolve:Max dm/dt} Oxs_RungeKuttaEvolve:evolve:dE/dt {Oxs_RungeKuttaEvolve:evolve:Delta E} Oxs_CubicAnisotropy::Energy Oxs_UniformExchange::Energy {Oxs_UniformExchange::Max Spin Ang} {Oxs_UniformExchange::Stage Max Spin Ang} {Oxs_UniformExchange::Run Max Spin Ang} Oxs_UZeeman::Energy  Oxs_UZeeman::B       Oxs_UZeeman::Bx      Oxs_UZeeman::By      Oxs_UZeeman::Bz      Oxs_Demag::Energy    Oxs_TimeDriver::Iteration {Oxs_TimeDriver::Stage iteration} Oxs_TimeDriver::Stage Oxs_TimeDriver::mx   Oxs_TimeDriver::my   Oxs_TimeDriver::mz   {Oxs_TimeDriver::Last time step} {Oxs_TimeDriver::Simulation time}
# Units:                       J                                            {}                                        deg/ns                                 J/s                                  J                                J                           J                              deg                                    deg                                      deg                            J                 mT                   mT                   mT                   mT                     J                       {}                            {}                          {}                   {}                   {}                   {}                          s                                 s                
                       1.240331990770526e-18                          1                                           1984.8897437308244                  -2.9257697573587914e-08                 0                               -3.628571428571429e-20         0                               0                                      0                                        0                              0                    0                    0                    0                    0                    1.2766177050562402e-18    0                             0                           0                    -0.89087080637474791 -0.44543540318737396 -0.089087080637474794        0                                0                         
                       1.2401919885699657e-18                          7                                           1989.8619271239777                  -2.9245245181007331e-08                -1.4000220056013321e-22             -3.628027091101336e-20         5.180623780507304e-26             0.0047770756907774877                    0.0047770756907774877                      0.0047770756907774877            0                    0                    0                    0                    0                    1.2764722076747414e-18    1                             1                           0                    -0.89089157621447457 -0.4454102109367698  -0.089005289220559031        4.7861600524690491e-15              4.7861600524690491e-15       
# Table End
