# ODT 1.0
# Table Start
# Title: mmArchive Data Table, Wed Jun 16 18:50:23 EDT 2010
# Columns: {Oxs_CGEvolve:evolve:Max mxHxm} {Oxs_CGEvolve:evolve:Total energy} {Oxs_CGEvolve:evolve:Delta E} {Oxs_CGEvolve:evolve:Bracket count} {Oxs_CGEvolve:evolve:Line min count} {Oxs_CGEvolve:evolve:Cycle count} {Oxs_CGEvolve:evolve:Cycle sub count} {Oxs_CGEvolve:evolve:Energy calc count} Oxs_Exchange6Ngbr::Energy {Oxs_Exchange6Ngbr::Max Spin Ang} {Oxs_Exchange6Ngbr::Stage Max Spin Ang} {Oxs_Exchange6Ngbr::Run Max Spin Ang} Oxs_MinDriver::Iteration {Oxs_MinDriver::Stage iteration} Oxs_MinDriver::Stage Oxs_MinDriver::mx    Oxs_MinDriver::my    Oxs_MinDriver::mz   
# Units:                 A/m                               J                                J                               {}                                   {}                                 {}                                  {}                                     {}                                J                            deg                                  deg                                    deg                             {}                           {}                         {}                 {}                   {}                   {}           
                 1084294.7262883796                4.8006240146569579e-20             4.8006240146569579e-20              0                                    0                                  1                                   1                                      1                                4.8006240146569579e-20           20.124233173400466                   20.124233173400466                     20.124233173400466              0                            0                          0                    0.78102551995263969  0.54760358164422562  0.2766206617629654 
                 1078443.3023551933                4.7607418029685724e-20            -3.9882211688385314e-22              1                                    0                                  1                                   1                                      2                                4.7607418029685724e-20           20.029076546978892                   20.124233173400466                     20.124233173400466              1                            1                          0                    0.78105696780049738  0.54762568316062488  0.27663241205508976
                 1037407.3564358223                4.4869991544496942e-20            -2.7374264851887813e-21              2                                    0                                  1                                   1                                      3                                4.4869991544496942e-20           19.363122837131971                   20.124233173400466                     20.124233173400466              2                            2                          0                    0.78127342902128416  0.54777781359399269  0.27671329854468568
                 705330.00399364659                2.642344798427811e-20            -1.8446543560218835e-20              3                                    0                                  1                                   1                                      4                                2.642344798427811e-20           14.053280141924052                   20.124233173400466                     20.124233173400466              3                            3                          0                    0.78277252964366772  0.5488315273836909   0.27727428578900648
                 303919.6720495192                 7.4135044136873244e-21            -1.9009943570590785e-20              4                                    0                                  1                                   1                                      5                                7.4135044136873244e-21           7.7520427660351432                   20.124233173400466                     20.124233173400466              4                            4                          0                    0.78469821395659167  0.55018647723999836  0.27801010332305809
                 300991.29501465405                7.2567253854544442e-21            -1.5677902823288046e-22              5                                    0                                  2                                   0                                      6                                7.2567253854544442e-21           7.7031647668226642                   20.124233173400466                     20.124233173400466              5                            5                          0                    0.78471570487272879  0.55019867853246163  0.27801638715596111
                 280529.09009206877                6.2302874334573825e-21            -1.0264379519970613e-21              6                                    0                                  2                                   0                                      7                                6.2302874334573825e-21           7.3613376124195575                   20.124233173400466                     20.124233173400466              6                            6                          0                    0.78483293526944009  0.55028037121374762  0.27805848065896194
                 190685.86643741332                2.4969608239184274e-21            -3.7333266095389555e-21              7                                    0                                  2                                   0                                      8                                2.4969608239184274e-21           4.6617487942163462                   20.124233173400466                     20.124233173400466              7                            7                          0                    0.78544177121963887  0.55070064838486776  0.27827547991003382
                 127600.30353390507                1.1665446695859141e-21            -1.3304161543325133e-21              8                                    0                                  3                                   1                                      9                                1.1665446695859141e-21           3.5647023063681891                   20.124233173400466                     20.124233173400466              8                            8                          0                    0.78584993069133935  0.55097256959581298  0.27842126234568726
                 85963.427286165243                9.5114459825184562e-22            -2.1540007133406833e-22              8                                    1                                  3                                   1                                      10                               9.5114459825184562e-22           3.4792771898339931                   20.124233173400466                     20.124233173400466              9                            9                          0                    0.78579798012000523  0.55093933869707834  0.27840239901536046
                 59798.135052312224                6.1763832295288468e-22            -3.3350627529896099e-22              9                                    2                                  4                                   2                                      12                               6.1763832295288468e-22           2.8504095530844342                   20.124233173400466                     20.124233173400466              10                           10                         0                    0.78594454514962231  0.55103703607595766  0.27845410471398385
# Table End
