# ODT 1.0
# Table Start
# Title: mmArchive Data Table, Wed Jun 16 18:50:24 EDT 2010
# Columns: {Oxs_CGEvolve:evolve:Max mxHxm} {Oxs_CGEvolve:evolve:Total energy} {Oxs_CGEvolve:evolve:Delta E} {Oxs_CGEvolve:evolve:Bracket count} {Oxs_CGEvolve:evolve:Line min count} {Oxs_CGEvolve:evolve:Cycle count} {Oxs_CGEvolve:evolve:Cycle sub count} {Oxs_CGEvolve:evolve:Energy calc count} Oxs_Exchange6Ngbr::Energy {Oxs_Exchange6Ngbr::Max Spin Ang} {Oxs_Exchange6Ngbr::Stage Max Spin Ang} {Oxs_Exchange6Ngbr::Run Max Spin Ang} Oxs_MinDriver::Iteration {Oxs_MinDriver::Stage iteration} Oxs_MinDriver::Stage Oxs_MinDriver::mx    Oxs_MinDriver::my    Oxs_MinDriver::mz   
# Units:                 A/m                               J                                J                               {}                                   {}                                 {}                                  {}                                     {}                                J                            deg                                  deg                                    deg                             {}                           {}                         {}                 {}                   {}                   {}           
                 573639.56999138684                1.3344165678040827e-20             1.3344165678040827e-20              0                                    0                                  1                                   1                                      1                                1.3344165678040827e-20           11.08262510510612                    11.08262510510612                      11.08262510510612               0                            0                          0                    0.77358702832683834  0.55272879820748078  0.28771424094088172
                 569782.68885773048                1.3192348914397096e-20            -1.5181676364373258e-22              1                                    0                                  1                                   1                                      2                                1.3192348914397096e-20           11.02426645251316                    11.08262510510612                      11.08262510510612               1                            1                          0                    0.77363027019273578  0.55275765540671762  0.28773059498644488
                 542893.81552735006                1.2164229380948674e-20            -1.0281195334484218e-21              2                                    0                                  1                                   1                                      3                                1.2164229380948674e-20           10.616205905042282                   11.08262510510612                      11.08262510510612               2                            2                          0                    0.77392592819517569  0.55295517157441043  0.28784252380596137
                 341197.75234682753                6.1280202610782183e-21            -6.0362091198704551e-21              3                                    0                                  1                                   1                                      4                                6.1280202610782183e-21           7.3968577589386637                   11.08262510510612                      11.08262510510612               3                            3                          0                    0.7758498166148492   0.55424672301352285  0.2885765845564886 
                 306526.26362898451                3.9834453317474077e-21            -2.1445749293308106e-21              4                                    1                                  1                                   1                                      6                                3.9834453317474077e-21           5.9036182217216187                   11.08262510510612                      11.08262510510612               4                            4                          0                    0.777037386830434    0.55503217413260297  0.28903789739446911
                 236338.10611204582                1.295740300025917e-21            -2.6877050317214908e-21              5                                    1                                  2                                   2                                      7                                1.295740300025917e-21           4.579170976134904                    11.08262510510612                      11.08262510510612               5                            5                          0                    0.77855367847192214  0.55610019441907887  0.28961655436348582
                 165294.37806806268                7.4100127289843641e-22            -5.5473902712748061e-22              5                                    2                                  2                                   2                                      8                                7.4100127289843641e-22           4.914429315588249                    11.08262510510612                      11.08262510510612               6                            6                          0                    0.77853105684818669  0.55609693553470529  0.28960254083571946
                 123893.71198922987                4.1881698904539696e-22            -3.2218428385303945e-22              6                                    2                                  3                                   3                                      9                                4.1881698904539696e-22           1.9707420754420208                   11.08262510510612                      11.08262510510612               7                            7                          0                    0.77872240446758545  0.55625026553290868  0.28968180470321259
                 53091.92260345698                 1.2513227761769142e-22            -2.9368471142770551e-22              6                                    3                                  3                                   3                                      10                               1.2513227761769142e-22           2.1571164847649644                   11.08262510510612                      11.08262510510612               8                            8                          0                    0.77876172565252821  0.55626551910722677  0.28969057278772603
                 33657.827202908753                4.0670063293223771e-23            -8.4462214324467657e-23              7                                    4                                  4                                   4                                      12                               4.0670063293223771e-23           1.0674206647432662                   11.08262510510612                      11.08262510510612               9                            9                          0                    0.77880125506308329  0.55629368134151047  0.28970555140898568
                 22471.773254558389                2.224498220047517e-23            -1.84250810927486e-23              8                                    4                                  5                                   5                                      13                               2.224498220047517e-23           0.71437491408869747                  11.08262510510612                      11.08262510510612               10                           10                         0                    0.77881714563250493  0.55630500586180565  0.28971160942606095
# Table End
