# ODT 1.0
# Table Start
# Title: mmArchive Data Table, Wed Jun 16 18:50:17 EDT 2010
# Columns: {Oxs_CGEvolve:evolve:Max mxHxm} {Oxs_CGEvolve:evolve:Total energy} {Oxs_CGEvolve:evolve:Delta E} {Oxs_CGEvolve:evolve:Bracket count} {Oxs_CGEvolve:evolve:Line min count} {Oxs_CGEvolve:evolve:Cycle count} {Oxs_CGEvolve:evolve:Cycle sub count} {Oxs_CGEvolve:evolve:Energy calc count} Oxs_Exchange6Ngbr::Energy {Oxs_Exchange6Ngbr::Max Spin Ang} {Oxs_Exchange6Ngbr::Stage Max Spin Ang} {Oxs_Exchange6Ngbr::Run Max Spin Ang} Oxs_MinDriver::Iteration {Oxs_MinDriver::Stage iteration} Oxs_MinDriver::Stage Oxs_MinDriver::mx    Oxs_MinDriver::my    Oxs_MinDriver::mz   
# Units:                 A/m                               J                                J                               {}                                   {}                                 {}                                  {}                                     {}                                J                            deg                                  deg                                    deg                             {}                           {}                         {}                 {}                   {}                   {}           
                 2436344.4367518164                7.5439023905538699e-19             7.5439023905538699e-19              0                                    0                                  1                                   1                                      1                                7.5439023905538699e-19           22.364963086693042                   22.364963086693042                     22.364963086693042              0                            0                          0                    0.79700377888213747  0.53148431754633785  0.26729013832238435
                 2425262.1695360481                7.4913542254748403e-19            -5.2548165079029863e-21              1                                    0                                  1                                   1                                      2                                7.4913542254748403e-19           22.297310569294243                   22.364963086693042                     22.364963086693042              1                            1                          0                    0.79702633767257069  0.53149960152300646  0.2672978270892804 
                 2347551.4098382108                7.1293445319057102e-19            -3.6200969356913026e-20              2                                    0                                  1                                   1                                      3                                7.1293445319057102e-19           21.823758115027903                   22.364963086693042                     22.364963086693042              2                            2                          0                    0.79718204033609263  0.53160509959098257  0.26735089441346632
                 1718794.2485723679                4.6025657747806762e-19            -2.5267787571250335e-19              3                                    0                                  1                                   1                                      4                                4.6025657747806762e-19           18.059565657595829                   22.364963086693042                     22.364963086693042              3                            3                          0                    0.79828805098043731  0.53235480394475576  0.26772794702621888
                 668925.44735687098                1.2007014514390448e-19            -3.4018643233416314e-19              4                                    0                                  1                                   1                                      5                                1.2007014514390448e-19           12.097639504827173                   22.364963086693042                     22.364963086693042              4                            4                          0                    0.7999519520008932   0.5334825733801829   0.26830012875528164
                 662712.35644510074                1.1842985910318922e-19            -1.6402860407152623e-21              5                                    0                                  2                                   0                                      6                                1.1842985910318922e-19           12.041834286881494                   22.364963086693042                     22.364963086693042              5                            5                          0                    0.79996507432018504  0.53349148645110533  0.26830460785887644
                 619207.1359266967                 1.0734674505497759e-19            -1.1083114048211639e-20              6                                    0                                  2                                   0                                      7                                1.0734674505497759e-19           11.651209818641124                   22.364963086693042                     22.364963086693042              6                            6                          0                    0.80005441087151608  0.53355215036741532  0.26833509436388153
                 358379.74381471385                4.3856368729676146e-20            -6.3490376325301433e-20              7                                    0                                  2                                   0                                      8                                4.3856368729676146e-20           8.528327426828044                    22.364963086693042                     22.364963086693042              7                            7                          0                    0.80060940648537526  0.53392937282871611  0.26852458796851481
                 267202.42129806109                2.4981678293367527e-20            -1.8874690436308621e-20              8                                    1                                  2                                   0                                      10                               2.4981678293367527e-20           6.678939516338251                    22.364963086693042                     22.364963086693042              8                            8                          0                    0.80086707303333582  0.5341091169392066   0.26861433455502565
                 124325.46892383459                8.3571988990097534e-21            -1.6624479394357774e-20              9                                    2                                  3                                   1                                      12                               8.3571988990097534e-21           3.576613555161273                    22.364963086693042                     22.364963086693042              9                            9                          0                    0.80111496367900514  0.5342783832739264   0.26869857839700562
                 89245.443019052676                3.5730097095641797e-21            -4.7841891894455729e-21              10                                   3                                  4                                   2                                      14                               3.5730097095641797e-21           2.5293575416367742                   22.364963086693042                     22.364963086693042              10                           10                         0                    0.80121665305141232  0.53434744028120318  0.26873300035305214
# Table End
