# ODT 1.0
# Table Start
# Title: mmArchive Data Table, Wed Jun 16 18:50:18 EDT 2010
# Columns: {Oxs_CGEvolve:evolve:Max mxHxm} {Oxs_CGEvolve:evolve:Total energy} {Oxs_CGEvolve:evolve:Delta E} {Oxs_CGEvolve:evolve:Bracket count} {Oxs_CGEvolve:evolve:Line min count} {Oxs_CGEvolve:evolve:Cycle count} {Oxs_CGEvolve:evolve:Cycle sub count} {Oxs_CGEvolve:evolve:Energy calc count} Oxs_Exchange6Ngbr::Energy {Oxs_Exchange6Ngbr::Max Spin Ang} {Oxs_Exchange6Ngbr::Stage Max Spin Ang} {Oxs_Exchange6Ngbr::Run Max Spin Ang} Oxs_MinDriver::Iteration {Oxs_MinDriver::Stage iteration} Oxs_MinDriver::Stage Oxs_MinDriver::mx    Oxs_MinDriver::my    Oxs_MinDriver::mz   
# Units:                 A/m                               J                                J                               {}                                   {}                                 {}                                  {}                                     {}                                J                            deg                                  deg                                    deg                             {}                           {}                         {}                 {}                   {}                   {}           
                 2394440.3897008263                1.1540408866536648e-18             1.1540408866536648e-18              0                                    0                                  1                                   1                                      1                                1.1540408866536648e-18           21.677832845054642                   21.677832845054642                     21.677832845054642              0                            0                          0                    0.79324092277196179  0.53594279724476868  0.27031508816030986
                 2384118.0963562927                1.1457143328669704e-18            -8.3265537866945179e-21              1                                    0                                  1                                   1                                      2                                1.1457143328669704e-18           21.599315192639658                   21.677832845054642                     21.677832845054642              1                            1                          0                    0.79326324905675594  0.53595819663400757  0.27032277559142315
                 2311728.000938951                 1.0883877899352992e-18            -5.732654293167107e-20              2                                    0                                  1                                   1                                      3                                1.0883877899352992e-18           21.049721548484538                   21.677832845054642                     21.677832845054642              2                            2                          0                    0.79341728247925547  0.53606441558737494  0.27037580729902333
                 1725466.7502200678                6.9055163845460585e-19            -3.9783615148069337e-19              3                                    0                                  1                                   1                                      4                                6.9055163845460585e-19           17.770248874737074                   21.677832845054642                     21.677832845054642              3                            3                          0                    0.79450699290839855  0.53681492459797375  0.27075086244845781
                 656267.36786990915                1.7473574987974233e-19            -5.1581588857486351e-19              4                                    0                                  1                                   1                                      5                                1.7473574987974233e-19           12.088972402711338                   21.677832845054642                     21.677832845054642              4                            4                          0                    0.79610092003020616  0.53791948126355726  0.27130377859137339
                 649569.3789607333                 1.7222274613405613e-19            -2.5130037456862233e-21              5                                    0                                  2                                   0                                      6                                1.7222274613405613e-19           12.019976828106982                   21.677832845054642                     21.677832845054642              5                            5                          0                    0.79611337085201994  0.53792791225309977  0.27130805480812292
                 602678.38055321516                1.5528929184788299e-19            -1.6933454286173125e-20              6                                    0                                  2                                   0                                      7                                1.5528929184788299e-19           11.537014763642958                   21.677832845054642                     21.677832845054642              6                            6                          0                    0.79619800056704482  0.53798521611590988  0.27133712126377535
                 306695.26715697953                6.130913329292121e-20            -9.3980158554961781e-20              7                                    0                                  2                                   0                                      8                                6.130913329292121e-20           7.9993168228449605                   21.677832845054642                     21.677832845054642              7                            7                          0                    0.7967156822812349   0.53833560559576554  0.2715150086025826 
                 322537.55240534811                3.9209569134899434e-20            -2.2099564158021771e-20              8                                    1                                  2                                   0                                      10                               3.9209569134899434e-20           6.7705219318602863                   21.677832845054642                     21.677832845054642              8                            8                          0                    0.79692184429127078  0.53847497794161736  0.27158610029062885
                 173420.79158525661                1.5205316903640924e-20            -2.4004252231258513e-20              9                                    2                                  3                                   1                                      12                               1.5205316903640924e-20           4.6066905569369503                   21.677832845054642                     21.677832845054642              9                            9                          0                    0.79715415366540066  0.53863143291593862  0.27166606555000899
                 173843.40212833523                8.7114338394070141e-21            -6.493883064233909e-21              10                                   2                                  4                                   2                                      13                               8.7114338394070141e-21           2.7445829654258245                   21.677832845054642                     21.677832845054642              10                           10                         0                    0.79728949376627423  0.53872198662022186  0.27171240745670966
# Table End
