# ODT 1.0
# Table Start
# Title: mmArchive Data Table, Wed Jun 16 18:50:22 EDT 2010
# Columns: {Oxs_CGEvolve:evolve:Max mxHxm} {Oxs_CGEvolve:evolve:Total energy} {Oxs_CGEvolve:evolve:Delta E} {Oxs_CGEvolve:evolve:Bracket count} {Oxs_CGEvolve:evolve:Line min count} {Oxs_CGEvolve:evolve:Cycle count} {Oxs_CGEvolve:evolve:Cycle sub count} {Oxs_CGEvolve:evolve:Energy calc count} Oxs_Exchange6Ngbr::Energy {Oxs_Exchange6Ngbr::Max Spin Ang} {Oxs_Exchange6Ngbr::Stage Max Spin Ang} {Oxs_Exchange6Ngbr::Run Max Spin Ang} Oxs_MinDriver::Iteration {Oxs_MinDriver::Stage iteration} Oxs_MinDriver::Stage Oxs_MinDriver::mx    Oxs_MinDriver::my    Oxs_MinDriver::mz   
# Units:                 A/m                               J                                J                               {}                                   {}                                 {}                                  {}                                     {}                                J                            deg                                  deg                                    deg                             {}                           {}                         {}                 {}                   {}                   {}           
                 390346.10146381665                1.8661189485624985e-20             1.8661189485624985e-20              0                                    0                                  1                                   1                                      1                                1.8661189485624985e-20           20.124233173400466                   20.124233173400466                     20.124233173400466              0                            0                          0                    0.78102551995263969  0.54760358164422562  0.2766206617629654 
                 388283.89236865245                1.8498995667109693e-20            -1.621938185152921e-22              1                                    0                                  1                                   1                                      2                                1.8498995667109693e-20           20.028789488621602                   20.124233173400466                     20.124233173400466              1                            1                          0                    0.78105947684196542  0.54762747597821981  0.27663331841819755
                 373821.38422622136                1.7386242098284852e-20            -1.1127535688248409e-21              2                                    0                                  1                                   1                                      3                                1.7386242098284852e-20           19.360817298301889                   20.124233173400466                     20.124233173400466              2                            2                          0                    0.78129302322975325  0.54779181752765194  0.2767203782128661 
                 256793.26274562118                9.9200193914390566e-21            -7.4662227068457953e-21              3                                    0                                  1                                   1                                      4                                9.9200193914390566e-21           14.03407689102807                    20.124233173400466                     20.124233173400466              3                            3                          0                    0.78289860292270974  0.5489217858851555   0.27731989465109813
                 109185.12576501882                2.5102370553679635e-21            -7.4097823360710923e-21              4                                    0                                  1                                   1                                      5                                2.5102370553679635e-21           7.5056413235825659                   20.124233173400466                     20.124233173400466              4                            4                          0                    0.78485793832759021  0.55030126488257303  0.27806751151010284
                 52353.716392865463                6.9676179312493366e-22            -1.8134752622430296e-21              5                                    1                                  2                                   2                                      7                                6.9676179312493366e-22           4.4728769600290024                   20.124233173400466                     20.124233173400466              5                            5                          0                    0.78554970189911455  0.5507726348203571   0.278320269908232  
                 31095.413399287339                3.8418483738208036e-22            -3.1257695574285331e-22              6                                    2                                  3                                   3                                      9                                3.8418483738208036e-22           2.6709453338773761                   20.124233173400466                     20.124233173400466              6                            6                          0                    0.78577727083980387  0.55092388644965562  0.2784017071643608 
                 18633.968628213603                2.1990629506079072e-22            -1.6427854232128962e-22              7                                    2                                  4                                   4                                      10                               2.1990629506079072e-22           1.4782271587251123                   20.124233173400466                     20.124233173400466              7                            7                          0                    0.78599340836235865  0.55106836391252667  0.27847847622827371
                 17144.379188816751                2.1751367030611625e-22            -2.3926247546744759e-24              8                                    3                                  4                                   4                                      12                               2.1751367030611625e-22           1.5316952142580007                   20.124233173400466                     20.124233173400466              8                            8                          0                    0.78601499698957289  0.55108267667161903  0.27848616584503311
                 15228.074333267807                1.0292259477774442e-22            -1.1459107552837184e-22              9                                    3                                  5                                   5                                      13                               1.0292259477774442e-22           1.1252139599280244                   20.124233173400466                     20.124233173400466              9                            9                          0                    0.78620128129685962  0.55120909931685347  0.27855252155125565
                 17283.260954617639                9.4722479459353722e-23            -8.2001153183906917e-24              10                                   4                                  5                                   5                                      15                               9.4722479459353722e-23           1.1769725912854738                   20.124233173400466                     20.124233173400466              10                           10                         0                    0.7862432579564369   0.55123711187554747  0.27856743817508095
# Table End
