# ODT 1.0
# Table Start
# Title: mmArchive Data Table, Wed Jun 16 18:50:38 EDT 2010
# Columns: {Oxs_CGEvolve:evolve:Max mxHxm} {Oxs_CGEvolve:evolve:Total energy} {Oxs_CGEvolve:evolve:Delta E} {Oxs_CGEvolve:evolve:Bracket count} {Oxs_CGEvolve:evolve:Line min count} {Oxs_CGEvolve:evolve:Cycle count} {Oxs_CGEvolve:evolve:Cycle sub count} {Oxs_CGEvolve:evolve:Energy calc count} Oxs_Exchange6Ngbr::Energy {Oxs_Exchange6Ngbr::Max Spin Ang} {Oxs_Exchange6Ngbr::Stage Max Spin Ang} {Oxs_Exchange6Ngbr::Run Max Spin Ang} Oxs_MinDriver::Iteration {Oxs_MinDriver::Stage iteration} Oxs_MinDriver::Stage Oxs_MinDriver::mx    Oxs_MinDriver::my    Oxs_MinDriver::mz   
# Units:                 A/m                               J                                J                               {}                                   {}                                 {}                                  {}                                     {}                                J                            deg                                  deg                                    deg                             {}                           {}                         {}                 {}                   {}                   {}           
                 809171.44163626491                2.3796766936283697e-20             2.3796766936283697e-20              0                                    0                                  1                                   1                                      1                                2.3796766936283697e-20           14.708089565782023                   14.708089565782023                     14.708089565782023              0                            0                          0                    0.77848185802106018  0.54342741651922766  0.29581526868635244
                 803715.47522120923                2.3533480379393449e-20            -2.6328655689024902e-22              1                                    0                                  1                                   1                                      2                                2.3533480379393449e-20           14.636051288969416                   14.708089565782023                     14.708089565782023              1                            1                          0                    0.7785201529204554   0.54345293014584706  0.29582952704376247
                 765493.83297804277                2.1740100698468426e-20            -1.7933796809250221e-21              2                                    0                                  1                                   1                                      3                                2.1740100698468426e-20           14.131762712332739                   14.708089565782023                     14.708089565782023              2                            2                          0                    0.77878212876184849  0.54362772582607699  0.29592712576330399
                 458809.33165516588                1.0535227249549412e-20            -1.1204873448919015e-20              3                                    0                                  1                                   1                                      4                                1.0535227249549412e-20           10.198601611099125                   14.708089565782023                     14.708089565782023              3                            3                          0                    0.78049765886856781  0.54477980066018239  0.29656709706591655
                 518540.80123748432                6.7793029773085132e-21            -3.7559242722408991e-21              4                                    0                                  1                                   1                                      5                                6.7793029773085132e-21           8.727018537897699                    14.708089565782023                     14.708089565782023              4                            4                          0                    0.78195203856569906  0.54561070368593989  0.29705137818640515
                 337824.66437819501                4.235159279291156e-21            -2.5441436980173569e-21              4                                    1                                  1                                   1                                      6                                4.235159279291156e-21           7.2973301297674293                   14.708089565782023                     14.708089565782023              5                            5                          0                    0.78183849884421419  0.54564074527633533  0.29704918754791421
                 222033.05855484767                1.2443288369308945e-21            -2.9908304423602617e-21              5                                    1                                  2                                   2                                      7                                1.2443288369308945e-21           3.0738680292496272                   14.708089565782023                     14.708089565782023              6                            6                          0                    0.78270617692312405  0.54629413902397983  0.29737617951116985
                 114672.04543082419                5.3153337231768995e-22            -7.1279546461320451e-22              5                                    2                                  2                                   2                                      8                                5.3153337231768995e-22           2.1065465933161649                   14.708089565782023                     14.708089565782023              7                            7                          0                    0.78277202255461609  0.54630194185824144  0.29739986097515297
                 25618.010577314613                6.1029391931698552e-23            -4.7050398038599133e-22              6                                    3                                  3                                   3                                      10                               6.1029391931698552e-23           0.85763413136073285                  14.708089565782023                     14.708089565782023              8                            8                          0                    0.78286579247091514  0.5463690485371363   0.29743513269398708
                 13817.188205846858                3.0789458754443476e-23            -3.0239933177255075e-23              7                                    4                                  4                                   4                                      12                               3.0789458754443476e-23           0.71737284872232687                  14.708089565782023                     14.708089565782023              9                            9                          0                    0.78287820652565232  0.54637788927256292  0.29743980278010396
                 11346.408388959202                1.7315896751551791e-23            -1.3473562002891688e-23              8                                    4                                  5                                   5                                      13                               1.7315896751551791e-23           0.51637938830489816                  14.708089565782023                     14.708089565782023              10                           10                         0                    0.78289168117065844  0.54638743921322774  0.29744487979979101
# Table End
