# ODT 1.0
# Table Start
# Title: mmArchive Data Table, Wed Jun 16 18:50:09 EDT 2010
# Columns: {Oxs_CGEvolve:evolve:Max mxHxm} {Oxs_CGEvolve:evolve:Total energy} {Oxs_CGEvolve:evolve:Delta E} {Oxs_CGEvolve:evolve:Bracket count} {Oxs_CGEvolve:evolve:Line min count} {Oxs_CGEvolve:evolve:Cycle count} {Oxs_CGEvolve:evolve:Cycle sub count} {Oxs_CGEvolve:evolve:Energy calc count} Oxs_Exchange6Ngbr::Energy {Oxs_Exchange6Ngbr::Max Spin Ang} {Oxs_Exchange6Ngbr::Stage Max Spin Ang} {Oxs_Exchange6Ngbr::Run Max Spin Ang} Oxs_MinDriver::Iteration {Oxs_MinDriver::Stage iteration} Oxs_MinDriver::Stage Oxs_MinDriver::mx    Oxs_MinDriver::my    Oxs_MinDriver::mz   
# Units:                 A/m                               J                                J                               {}                                   {}                                 {}                                  {}                                     {}                                J                            deg                                  deg                                    deg                             {}                           {}                         {}                 {}                   {}                   {}           
                 1146099.2897908764                8.6816481769295337e-20             8.6816481769295337e-20              0                                    0                                  1                                   1                                      1                                8.6816481769295337e-20           20.124233173400466                   20.124233173400466                     20.124233173400466              0                            0                          0                    0.778455864987455    0.55053510755547952  0.28097814459234138
                 1138617.8781694432                8.5953749237427135e-20            -8.6273253186820862e-22              1                                    0                                  1                                   1                                      2                                8.5953749237427135e-20           20.033297360408277                   20.124233173400466                     20.124233173400466              1                            1                          0                    0.77849478487116275  0.5505621655611892   0.28099256113617838
                 1086188.7805037852                8.0046249328193167e-20            -5.9074999092339637e-21              2                                    0                                  1                                   1                                      3                                8.0046249328193167e-20           19.396891380183629                   20.124233173400466                     20.124233173400466              2                            2                          0                    0.77876177599674801  0.55074779300159693  0.28109146342389951
                 738595.10238772025                4.1141048113212947e-20            -3.890520121498022e-20              3                                    0                                  1                                   1                                      4                                4.1141048113212947e-20           14.322768561924944                   20.124233173400466                     20.124233173400466              3                            3                          0                    0.78055297924536127  0.55199398344785833  0.28175524528966756
                 401594.48389557179                9.0250209044033743e-21            -3.2116027208809574e-20              4                                    0                                  1                                   1                                      5                                9.0250209044033743e-21           5.9634603405990267                   20.124233173400466                     20.124233173400466              4                            4                          0                    0.78235198909136849  0.55325870123157173  0.28242343182582402
                 404014.29043463053                8.1047091213999064e-21            -9.203117830034673e-22              4                                    1                                  1                                   1                                      6                                8.1047091213999064e-21           6.2383208633633549                   20.124233173400466                     20.124233173400466              5                            5                          0                    0.78232015482622508  0.55323322261144237  0.28241137838179714
                 129125.63414398409                2.0602324555384329e-21            -6.0444766658614735e-21              5                                    2                                  2                                   2                                      8                                2.0602324555384329e-21           2.9217200952774283                   20.124233173400466                     20.124233173400466              6                            6                          0                    0.782810004540617    0.55358599988788904  0.28258946317996941
                 71247.73619962782                 7.5427021222184176e-22            -1.3059622433165913e-21              6                                    3                                  3                                   3                                      10                               7.5427021222184176e-22           2.4902382434023047                   20.124233173400466                     20.124233173400466              7                            7                          0                    0.78297050992723427  0.55369947713629197  0.2826473083529395 
                 47325.547692585911                3.5656682086214998e-22            -3.9770339135969173e-22              7                                    3                                  4                                   4                                      11                               3.5656682086214998e-22           1.2565941696548248                   20.124233173400466                     20.124233173400466              8                            8                          0                    0.78306236594568002  0.5537640145311713   0.28268060288273167
                 50742.130643796714                3.412464116751152e-22            -1.5320409187034811e-23              8                                    4                                  4                                   4                                      13                               3.412464116751152e-22           1.2101664457846379                   20.124233173400466                     20.124233173400466              9                            9                          0                    0.78307658240985711  0.55377396988266159  0.28268576899823855
                 51536.484861531215                1.5748312891844064e-22            -1.8376328275667456e-22              9                                    4                                  5                                   5                                      14                               1.5748312891844064e-22           1.0101853577340607                   20.124233173400466                     20.124233173400466              10                           10                         0                    0.78313272713747895  0.55381365800634053  0.28270617162980327
# Table End
