# ODT 1.0
# Table Start
# Title: mmArchive Data Table, Wed Jun 16 18:50:12 EDT 2010
# Columns: {Oxs_CGEvolve:evolve:Max mxHxm} {Oxs_CGEvolve:evolve:Total energy} {Oxs_CGEvolve:evolve:Delta E} {Oxs_CGEvolve:evolve:Bracket count} {Oxs_CGEvolve:evolve:Line min count} {Oxs_CGEvolve:evolve:Cycle count} {Oxs_CGEvolve:evolve:Cycle sub count} {Oxs_CGEvolve:evolve:Energy calc count} Oxs_Exchange6Ngbr::Energy {Oxs_Exchange6Ngbr::Max Spin Ang} {Oxs_Exchange6Ngbr::Stage Max Spin Ang} {Oxs_Exchange6Ngbr::Run Max Spin Ang} Oxs_MinDriver::Iteration {Oxs_MinDriver::Stage iteration} Oxs_MinDriver::Stage Oxs_MinDriver::mx    Oxs_MinDriver::my    Oxs_MinDriver::mz   
# Units:                 A/m                               J                                J                               {}                                   {}                                 {}                                  {}                                     {}                                J                            deg                                  deg                                    deg                             {}                           {}                         {}                 {}                   {}                   {}           
                 3201583.1008732403                4.8135651823669781e-16             4.8135651823669781e-16              0                                    0                                  1                                   1                                      1                                4.8135651823669781e-16           25.168622556717597                   25.168622556717597                     25.168622556717597              0                            0                          0                    0.79490785731947433  0.53438388187474106  0.26840765312932263
                 3189872.07437954                  4.785329763681237e-16            -2.8235418685740945e-18              1                                    0                                  1                                   1                                      2                                4.785329763681237e-16           25.094374856489544                   25.168622556717597                     25.168622556717597              1                            1                          0                    0.79492745474715942  0.53439722504898945  0.26841434213399473
                 3107697.4150696532                4.5902681001356848e-16            -1.9506166354555198e-17              2                                    0                                  1                                   1                                      3                                4.5902681001356848e-16           24.574645901389644                   25.168622556717597                     25.168622556717597              2                            2                          0                    0.79506302817152785  0.53448952390967641  0.26846061260877213
                 2439426.0398076004                3.1934261839677397e-16            -1.3968419161679448e-16              3                                    0                                  1                                   1                                      4                                3.1934261839677397e-16           21.016745312519873                   25.168622556717597                     25.168622556717597              3                            3                          0                    0.7960459023495553   0.535158349915554    0.26879592605188379
                 1096369.5368268928                1.0024131641204295e-16            -2.1910130198473103e-16              4                                    0                                  1                                   1                                      5                                1.0024131641204295e-16           16.447408074459993                   25.168622556717597                     25.168622556717597              4                            4                          0                    0.79769123706097356  0.53628009895100759  0.26935820280320183
                 1087953.4853056485                9.9064012189098128e-17            -1.1773042229448284e-18              5                                    0                                  2                                   0                                      6                                9.9064012189098128e-17           16.37728220817641                    25.168622556717597                     25.168622556717597              5                            5                          0                    0.79770322593723375  0.536288213474856    0.26936227474084262
                 1029009.5197641579                9.1060297946040139e-17            -8.0037142430579851e-18              6                                    0                                  2                                   0                                      7                                9.1060297946040139e-17           15.886425153927098                   25.168622556717597                     25.168622556717597              6                            6                          0                    0.79778516816403211  0.5363436681211543   0.26939010284358139
                 654717.68843530724                4.2012879916490257e-17            -4.9047418029549876e-17              7                                    0                                  2                                   0                                      8                                4.2012879916490257e-17           12.263999366896416                   25.168622556717597                     25.168622556717597              7                            7                          0                    0.79831562276611279  0.53670257645969166  0.26957021774415912
                 1024925.1828519698                3.4744794031046055e-17            -7.2680858854442014e-18              8                                    0                                  2                                   0                                      9                                3.4744794031046055e-17           9.5066612315587324                   25.168622556717597                     25.168622556717597              8                            8                          0                    0.79867030886220391  0.53695055325400465  0.26969420888998391
                 517522.51176250074                1.8073366990730712e-17            -1.6671427040315346e-17              8                                    1                                  2                                   0                                      10                               1.8073366990730712e-17           9.7219416534980638                   25.168622556717597                     25.168622556717597              9                            9                          0                    0.79867683105871234  0.53694892218634749  0.26969373632991872
                 484562.99978027923                9.4252137266681988e-18            -8.6481532640625119e-18              9                                    1                                  3                                   1                                      11                               9.4252137266681988e-18           5.101237066932728                    25.168622556717597                     25.168622556717597              10                           10                         0                    0.79894003677815728  0.53712783308074852  0.26978349677173241
# Table End
