# ODT 1.0
# Table Start
# Title: mmArchive Data Table, Wed Jun 16 18:50:38 EDT 2010
# Columns: {Oxs_CGEvolve:evolve:Max mxHxm} {Oxs_CGEvolve:evolve:Total energy} {Oxs_CGEvolve:evolve:Delta E} {Oxs_CGEvolve:evolve:Bracket count} {Oxs_CGEvolve:evolve:Line min count} {Oxs_CGEvolve:evolve:Cycle count} {Oxs_CGEvolve:evolve:Cycle sub count} {Oxs_CGEvolve:evolve:Energy calc count} Oxs_Exchange6Ngbr::Energy {Oxs_Exchange6Ngbr::Max Spin Ang} {Oxs_Exchange6Ngbr::Stage Max Spin Ang} {Oxs_Exchange6Ngbr::Run Max Spin Ang} Oxs_MinDriver::Iteration {Oxs_MinDriver::Stage iteration} Oxs_MinDriver::Stage Oxs_MinDriver::mx    Oxs_MinDriver::my    Oxs_MinDriver::mz   
# Units:                 A/m                               J                                J                               {}                                   {}                                 {}                                  {}                                     {}                                J                            deg                                  deg                                    deg                             {}                           {}                         {}                 {}                   {}                   {}           
                 1140574.5107935767                6.3711100402156091e-20             6.3711100402156091e-20              0                                    0                                  1                                   1                                      1                                6.3711100402156091e-20           16.237469364944474                   16.237469364944474                     16.237469364944474              0                            0                          0                    0.77501748923487779  0.5590392176678024   0.27389526228479949
                 1131685.331910759                 6.3099522220521303e-20            -6.1157818163477869e-22              1                                    0                                  1                                   1                                      2                                6.3099522220521303e-20           16.147947365571245                   16.237469364944474                     16.237469364944474              1                            1                          0                    0.77505161679155554  0.55906331030976042  0.27390765944918005
                 1069402.9716553222                5.8916044371359354e-20            -4.1834778491619512e-21              2                                    0                                  1                                   1                                      3                                5.8916044371359354e-20           15.521303349457288                   16.237469364944474                     16.237469364944474              2                            2                          0                    0.77528591708168471  0.55922868868947273  0.27399275388548455
                 594759.43578619882                3.1632786214130204e-20            -2.728325815722915e-20              3                                    0                                  1                                   1                                      4                                3.1632786214130204e-20           10.513118653659733                   16.237469364944474                     16.237469364944474              3                            3                          0                    0.77686927857827293  0.56034588842931354  0.27456726216735033
                 674677.91420801322                1.1432901799447202e-20            -2.0199884414683004e-20              4                                    0                                  1                                   1                                      5                                1.1432901799447202e-20           11.948894608292751                   16.237469364944474                     16.237469364944474              4                            4                          0                    0.77855027376137464  0.56156052752184693  0.27518580140336613
                 436707.80151130742                1.0170378479000073e-20            -1.2625233204471287e-21              4                                    1                                  1                                   1                                      6                                1.0170378479000073e-20           10.774673553597179                   16.237469364944474                     16.237469364944474              5                            5                          0                    0.77846891789239359  0.561491515757504    0.27515241272268742
                 680980.90631697397                8.8811007249888693e-21            -1.2892777540112048e-21              5                                    1                                  2                                   2                                      7                                8.8811007249888693e-21           5.9650220296825935                   16.237469364944474                     16.237469364944474              6                            6                          0                    0.77894586812032629  0.56193517718387043  0.27535503520087229
                 176043.80767016724                1.7776586659906595e-21            -7.1034420589982094e-21              5                                    2                                  2                                   2                                      8                                1.7776586659906595e-21           3.8734763370563612                   16.237469364944474                     16.237469364944474              7                            7                          0                    0.77923326874045551  0.56206630721259643  0.27543351671500704
                 74435.546707772155                7.3783019200126104e-22            -1.0398284739893985e-21              6                                    3                                  3                                   3                                      10                               7.3783019200126104e-22           2.7153003253552885                   16.237469364944474                     16.237469364944474              8                            8                          0                    0.77934995320261602  0.56215439909121456  0.27547584646434187
                 91537.079135963082                3.960621348511776e-22            -3.4176805715008344e-22              7                                    3                                  4                                   4                                      11                               3.960621348511776e-22           1.8116382859447389                   16.237469364944474                     16.237469364944474              9                            9                          0                    0.77945832400652737  0.5622352651283028   0.27551446215564379
                 70830.038638587139                3.8800938360038666e-22            -8.0527512507909553e-24              7                                    4                                  4                                   4                                      12                               3.8800938360038666e-22           1.8928461241369638                   16.237469364944474                     16.237469364944474              10                           10                         0                    0.77944875019722382  0.56222802920860171  0.27551102620371615
# Table End
