# ODT 1.0
# Table Start
# Title: mmArchive Data Table, Wed Jun 16 18:50:10 EDT 2010
# Columns: {Oxs_CGEvolve:evolve:Max mxHxm} {Oxs_CGEvolve:evolve:Total energy} {Oxs_CGEvolve:evolve:Delta E} {Oxs_CGEvolve:evolve:Bracket count} {Oxs_CGEvolve:evolve:Line min count} {Oxs_CGEvolve:evolve:Cycle count} {Oxs_CGEvolve:evolve:Cycle sub count} {Oxs_CGEvolve:evolve:Energy calc count} Oxs_Exchange6Ngbr::Energy {Oxs_Exchange6Ngbr::Max Spin Ang} {Oxs_Exchange6Ngbr::Stage Max Spin Ang} {Oxs_Exchange6Ngbr::Run Max Spin Ang} Oxs_MinDriver::Iteration {Oxs_MinDriver::Stage iteration} Oxs_MinDriver::Stage Oxs_MinDriver::mx    Oxs_MinDriver::my    Oxs_MinDriver::mz   
# Units:                 A/m                               J                                J                               {}                                   {}                                 {}                                  {}                                     {}                                J                            deg                                  deg                                    deg                             {}                           {}                         {}                 {}                   {}                   {}           
                 1033327.0757051038                3.0043135671315055e-20             3.0043135671315055e-20              0                                    0                                  1                                   1                                      1                                3.0043135671315055e-20           14.812189393316801                   14.812189393316801                     14.812189393316801              0                            0                          0                    0.77848185802106018  0.54342741651922766  0.29581526868635244
                 1026341.0630993764                2.9717273561215388e-20            -3.2586211009966581e-22              1                                    0                                  1                                   1                                      2                                2.9717273561215388e-20           14.733458902838603                   14.812189393316801                     14.812189393316801              1                            1                          0                    0.7785194736141573   0.54345292902054909  0.29582947961778927
                 977412.63610675768                2.749271784364121e-20            -2.2245557175741791e-21              2                                    0                                  1                                   1                                      3                                2.749271784364121e-20           14.182364694075659                   14.812189393316801                     14.812189393316801              2                            2                          0                    0.77877695493579957  0.54362772835886142  0.29592684052482449
                 585705.60995410453                1.3275306776722364e-20            -1.4217411066918846e-20              3                                    0                                  1                                   1                                      4                                1.3275306776722364e-20           9.778076433407799                    14.812189393316801                     14.812189393316801              3                            3                          0                    0.78047171249830338  0.54478258087224452  0.29656993106791246
                 430423.51681493997                5.4290005454869774e-21            -7.8463062312353869e-21              4                                    0                                  1                                   1                                      5                                5.4290005454869774e-21           6.0140029473119041                   14.812189393316801                     14.812189393316801              4                            4                          0                    0.78196329215794846  0.545691191635299    0.29707925982659106
                 409097.30579117517                3.7573697033411367e-21            -1.671630842145841e-21              4                                    1                                  1                                   1                                      6                                3.7573697033411367e-21           6.5513876494205263                   14.812189393316801                     14.812189393316801              5                            5                          0                    0.78190691291823133  0.54571688102280325  0.29709161379206561
                 121482.95428315522                9.3559765725094478e-22            -2.8217720460901919e-21              5                                    2                                  2                                   2                                      8                                9.3559765725094478e-22           2.5227166002755697                   14.812189393316801                     14.812189393316801              6                            6                          0                    0.78244557622180144  0.54609196837794349  0.29729071092356035
                 59766.0204411987                  4.1329564554705554e-22            -5.2230201170388934e-22              6                                    3                                  3                                   3                                      10                               4.1329564554705554e-22           2.1331566521174019                   14.812189393316801                     14.812189393316801              7                            7                          0                    0.78266502805605953  0.54623972154363298  0.29737052107735867
                 39331.416820594422                1.5677838615426416e-22            -2.565172593927914e-22              7                                    3                                  4                                   4                                      11                               1.5677838615426416e-22           1.0470216815329716                   14.812189393316801                     14.812189393316801              8                            8                          0                    0.78282538060105689  0.54634972933577242  0.29743023302298827
                 55884.811526961981                1.3570472616894223e-22            -2.1073659985321928e-23              8                                    4                                  4                                   4                                      13                               1.3570472616894223e-22           1.1130986248908166                   14.812189393316801                     14.812189393316801              9                            9                          0                    0.78285960142981093  0.54637261925549585  0.29744272543021977
                 25513.276341355097                3.0899137683541391e-23            -1.0480558848540084e-22              9                                    5                                  5                                   5                                      15                               3.0899137683541391e-23           0.53613826726409408                  14.812189393316801                     14.812189393316801              10                           10                         0                    0.78290299129778618  0.54640204317639995  0.29745873196788059
# Table End
