# ODT 1.0
# Table Start
# Title: mmArchive Data Table, Wed Jun 16 18:50:28 EDT 2010
# Columns: {Oxs_CGEvolve:evolve:Max mxHxm} {Oxs_CGEvolve:evolve:Total energy} {Oxs_CGEvolve:evolve:Delta E} {Oxs_CGEvolve:evolve:Bracket count} {Oxs_CGEvolve:evolve:Line min count} {Oxs_CGEvolve:evolve:Cycle count} {Oxs_CGEvolve:evolve:Cycle sub count} {Oxs_CGEvolve:evolve:Energy calc count} Oxs_Exchange6Ngbr::Energy {Oxs_Exchange6Ngbr::Max Spin Ang} {Oxs_Exchange6Ngbr::Stage Max Spin Ang} {Oxs_Exchange6Ngbr::Run Max Spin Ang} Oxs_MinDriver::Iteration {Oxs_MinDriver::Stage iteration} Oxs_MinDriver::Stage Oxs_MinDriver::mx    Oxs_MinDriver::my    Oxs_MinDriver::mz   
# Units:                 A/m                               J                                J                               {}                                   {}                                 {}                                  {}                                     {}                                J                            deg                                  deg                                    deg                             {}                           {}                         {}                 {}                   {}                   {}           
                 2958831.6760449465                2.7060887064264502e-16             2.7060887064264502e-16              0                                    0                                  1                                   1                                      1                                2.7060887064264502e-16           25.168622556717597                   25.168622556717597                     25.168622556717597              0                            0                          0                    0.7949316365219522   0.53439365182402232  0.26833377211047643
                 2948487.5176096628                2.691473532100168e-16            -1.461517432628266e-18              1                                    0                                  1                                   1                                      2                                2.6914735321001675e-16           25.097358206860584                   25.168622556717597                     25.168622556717597              1                            1                          0                    0.79494753312611333  0.53440447461546647  0.26833919667414358
                 2875946.0683190729                2.590446272038001e-16            -1.0102726006216648e-17              2                                    0                                  1                                   1                                      3                                2.590446272038001e-16           24.598511794642114                   25.168622556717597                     25.168622556717597              2                            2                          0                    0.79505760769150657  0.53447941070857496  0.2683767561097104 
                 2288398.2299051825                1.8631381472693485e-16            -7.2730812476865263e-17              3                                    0                                  1                                   1                                      4                                1.8631381472693485e-16           21.718796938360526                   25.168622556717597                     25.168622556717597              3                            3                          0                    0.79586224740252931  0.53502697628335394  0.2686512159352033 
                 967623.31111506943                6.8919747073385233e-17            -1.1739406765354963e-16              4                                    0                                  1                                   1                                      5                                6.8919747073385233e-17           18.886027342622693                   25.168622556717597                     25.168622556717597              4                            4                          0                    0.79726551551231384  0.5359831393868737   0.26913044636548122
                 960460.65811204561                6.8176557052384591e-17            -7.4319002100064575e-19              5                                    0                                  2                                   0                                      6                                6.8176557052384591e-17           18.842007078555699                   25.168622556717597                     25.168622556717597              5                            5                          0                    0.79727795679978053  0.5359915717461925   0.26913467566368826
                 911070.35687899019                6.3121333195019119e-17            -5.0552238573654693e-18              6                                    0                                  2                                   0                                      7                                6.3121333195019119e-17           18.533876275336901                   25.168622556717597                     25.168622556717597              6                            6                          0                    0.79736315939953062  0.53604931378062504  0.26916363684995465
                 604211.77153328259                3.1964065821890987e-17            -3.1157267373128138e-17              7                                    0                                  2                                   0                                      8                                3.1964065821890987e-17           16.070247531530715                   25.168622556717597                     25.168622556717597              7                            7                          0                    0.79792561739686796  0.53643041743921949  0.26935478997431306
                 990277.82698184066                2.5592555458998957e-17            -6.3715103628920279e-18              8                                    0                                  2                                   0                                      9                                2.5592555458998957e-17           11.135818883810575                   25.168622556717597                     25.168622556717597              8                            8                          0                    0.79840465318070797  0.5367615246306261   0.26952055890461701
                 488537.54503474757                1.6092572077485506e-17            -9.4999833815134509e-18              8                                    1                                  2                                   0                                      10                               1.6092572077485506e-17           12.9287532523494                     25.168622556717597                     25.168622556717597              9                            9                          0                    0.79835411426070224  0.53672245709051358  0.26950119210037543
                 658550.83794560982                7.5132289792625515e-18            -8.5793430982229534e-18              9                                    1                                  3                                   1                                      11                               7.5132289792625515e-18           9.8682122696072661                   25.168622556717597                     25.168622556717597              10                           10                         0                    0.79878921323515828  0.53701795262506635  0.26964935283075014
# Table End
