# ODT 1.0
# Table Start
# Title: mmArchive Data Table, Wed Jun 16 18:50:29 EDT 2010
# Columns: {Oxs_CGEvolve:evolve:Max mxHxm} {Oxs_CGEvolve:evolve:Total energy} {Oxs_CGEvolve:evolve:Delta E} {Oxs_CGEvolve:evolve:Bracket count} {Oxs_CGEvolve:evolve:Line min count} {Oxs_CGEvolve:evolve:Cycle count} {Oxs_CGEvolve:evolve:Cycle sub count} {Oxs_CGEvolve:evolve:Energy calc count} Oxs_Exchange6Ngbr::Energy {Oxs_Exchange6Ngbr::Max Spin Ang} {Oxs_Exchange6Ngbr::Stage Max Spin Ang} {Oxs_Exchange6Ngbr::Run Max Spin Ang} Oxs_MinDriver::Iteration {Oxs_MinDriver::Stage iteration} Oxs_MinDriver::Stage Oxs_MinDriver::mx    Oxs_MinDriver::my    Oxs_MinDriver::mz   
# Units:                 A/m                               J                                J                               {}                                   {}                                 {}                                  {}                                     {}                                J                            deg                                  deg                                    deg                             {}                           {}                         {}                 {}                   {}                   {}           
                 638612.60055284842                4.0224772185179366e-21             4.0224772185179366e-21              0                                    0                                  1                                   1                                      1                                4.0224772185179366e-21           7.3577308403039217                   7.3577308403039217                     7.3577308403039217              0                            0                          0                    0.75949131232048506  0.56924299000207879  0.3095185672623727 
                 631139.2843821618                 3.9326906501540901e-21            -8.978656836384677e-23              1                                    0                                  1                                   1                                      2                                3.9326906501540901e-21           7.279944250924741                    7.3577308403039217                     7.3577308403039217              1                            1                          0                    0.75951749168259108  0.5692629443060816   0.30952875125749135
                 578795.94567715563                3.3333406574130381e-21            -5.9934999274105177e-22              2                                    0                                  1                                   1                                      3                                3.3333406574130381e-21           6.7358674572752557                   7.3577308403039217                     7.3577308403039217              2                            2                          0                    0.75969250326873805  0.56939621468472312  0.30959692648820319
                 158970.21899349874                3.8073230071994002e-22            -2.9526083566930983e-21              3                                    0                                  1                                   1                                      4                                3.8073230071994002e-22           2.4676246262327726                   7.3577308403039217                     7.3577308403039217              3                            3                          0                    0.76056979161397531  0.57006937973600968  0.30993214229053617
                 58609.898659363927                1.1666132581213895e-22            -2.6407097490780104e-22              4                                    1                                  1                                   1                                      6                                1.1666132581213895e-22           1.1686722451936651                   7.3577308403039217                     7.3577308403039217              4                            4                          0                    0.76065906428895447  0.57015088894749166  0.30995257284888006
                 724.03613415678581                4.9190334224414668e-27            -1.1665640677871651e-22              5                                    2                                  2                                   2                                      8                                4.9190334224414668e-27           0.0079643875234475994                  7.3577308403039217                     7.3577308403039217              5                            5                          0                    0.76075583420104786  0.57022469170613765  0.30999089977018612
                 711.51857914430116                4.6771245390068042e-27            -2.4190888343466237e-28              5                                    4                                  2                                   2                                      10                               4.6771245390068042e-27           0.0074181984884305798                  7.3577308403039217                     7.3577308403039217              6                            6                          0                    0.76075583382497602  0.57022469342625415  0.30999089799654   
                 20.793395820150888                1.5655847553855362e-29            -4.6614686914529489e-27              6                                    5                                  3                                   3                                      12                               1.5655847553855362e-29           0.00041458832353831942                  7.3577308403039217                     7.3577308403039217              7                            7                          0                    0.76075583511931844  0.57022469444696477  0.30999089847989209
                 1.1625483102768752                1.2413648962648109e-32            -1.5643433904892712e-29              7                                    6                                  4                                   4                                      14                               1.2413648962648109e-32           1.1706232833739645e-05                  7.3577308403039217                     7.3577308403039217              8                            8                          0                    0.76075583513236245  0.5702246944569116   0.3099908984850594 
                 0.011454954216478859               4.5973590561698853e-36            -1.2409051603591938e-32              8                                    7                                  5                                   5                                      16                               4.5973590561698853e-36           0                                    7.3577308403039217                     7.3577308403039217              9                            9                          0                    0.76075583513236589  0.57022469445691426  0.30999089848506067
# Table End
