# ODT 1.0
# Table Start
# Title: mmArchive Data Table, Wed Jun 16 18:50:37 EDT 2010
# Columns: {Oxs_CGEvolve:evolve:Max mxHxm} {Oxs_CGEvolve:evolve:Total energy} {Oxs_CGEvolve:evolve:Delta E} {Oxs_CGEvolve:evolve:Bracket count} {Oxs_CGEvolve:evolve:Line min count} {Oxs_CGEvolve:evolve:Cycle count} {Oxs_CGEvolve:evolve:Cycle sub count} {Oxs_CGEvolve:evolve:Energy calc count} Oxs_Exchange6Ngbr::Energy {Oxs_Exchange6Ngbr::Max Spin Ang} {Oxs_Exchange6Ngbr::Stage Max Spin Ang} {Oxs_Exchange6Ngbr::Run Max Spin Ang} Oxs_MinDriver::Iteration {Oxs_MinDriver::Stage iteration} Oxs_MinDriver::Stage Oxs_MinDriver::mx    Oxs_MinDriver::my    Oxs_MinDriver::mz   
# Units:                 A/m                               J                                J                               {}                                   {}                                 {}                                  {}                                     {}                                J                            deg                                  deg                                    deg                             {}                           {}                         {}                 {}                   {}                   {}           
                 1146099.2897908764                5.776162482026988e-20             5.776162482026988e-20              0                                    0                                  1                                   1                                      1                                5.776162482026988e-20           16.237469364944474                   16.237469364944474                     16.237469364944474              0                            0                          0                    0.77501748923487779  0.5590392176678024   0.27389526228479949
                 1138206.1564774245                5.7237008009130163e-20            -5.2461681113971822e-22              1                                    0                                  1                                   1                                      2                                5.7237008009130163e-20           16.15022280338464                    16.237469364944474                     16.237469364944474              1                            1                          0                    0.77504826645332525  0.559060956658884    0.27390648484816871
                 1082895.7167069972                5.3643511733573162e-20            -3.5934962755569978e-21              2                                    0                                  1                                   1                                      3                                5.3643511733573162e-20           15.539505864738445                   16.237469364944474                     16.237469364944474              2                            2                          0                    0.77525979151542512  0.55921033231442807  0.27398360265451627
                 637745.76725496061                2.9891946124373007e-20            -2.3751565609200155e-20              3                                    0                                  1                                   1                                      4                                2.9891946124373007e-20           10.658391569639518                   16.237469364944474                     16.237469364944474              3                            3                          0                    0.77670367792301154  0.56022975987613977  0.27450953246454224
                 465145.4844975787                 9.4114162602914589e-21            -2.0480529864081545e-20              4                                    0                                  1                                   1                                      5                                9.4114162602914589e-21           12.212017255418091                   16.237469364944474                     16.237469364944474              4                            4                          0                    0.77836093388291583  0.56143965115007366  0.27511630236677409
                 403551.13751648559                9.0356556330762929e-21            -3.7576062721516547e-22              4                                    1                                  1                                   1                                      6                                9.0356556330762929e-21           11.479782883665479                   16.237469364944474                     16.237469364944474              5                            5                          0                    0.77830556505983062  0.56139028957272996  0.27509506517922511
                 620198.80268218089                7.2669602158143363e-21            -1.7686954172619569e-21              5                                    1                                  2                                   2                                      7                                7.2669602158143363e-21           6.443019163431468                    16.237469364944474                     16.237469364944474              6                            6                          0                    0.77886503708174148  0.56190117083672797  0.27531276826952322
                 168435.06165148018                1.7161302364702081e-21            -5.5508299793441286e-21              5                                    2                                  2                                   2                                      8                                1.7161302364702081e-21           5.5157909145869422                   16.237469364944474                     16.237469364944474              7                            7                          0                    0.77909389949051389  0.56198362027788906  0.27538203536062583
                 65705.466173822279                7.8026240362788413e-22            -9.35867832842324e-22              6                                    3                                  3                                   3                                      10                               7.8026240362788413e-22           4.1641493848975157                   16.237469364944474                     16.237469364944474              8                            8                          0                    0.77923138216469301  0.56208770271276376  0.27543167197712953
                 65141.19542721039                 3.6622966594528627e-22            -4.1403273768259787e-22              7                                    3                                  4                                   4                                      11                               3.6622966594528627e-22           2.8602755413174386                   16.237469364944474                     16.237469364944474              9                            9                          0                    0.77937677212525958  0.56219683627922457  0.27548367037656252
                 89223.632681792922                2.7886589680961489e-22            -8.7363769135671381e-23              9                                    3                                  5                                   5                                      13                               2.7886589680961489e-22           1.6048462630861913                   16.237469364944474                     16.237469364944474              10                           10                         0                    0.77946437113846723  0.56226341519308332  0.2755150247876485 
# Table End
