# ODT 1.0
# Table Start
# Title: mmArchive Data Table, Wed Jun 16 18:50:47 EDT 2010
# Columns: {Oxs_CGEvolve:evolve:Max mxHxm} {Oxs_CGEvolve:evolve:Total energy} {Oxs_CGEvolve:evolve:Delta E} {Oxs_CGEvolve:evolve:Bracket count} {Oxs_CGEvolve:evolve:Line min count} {Oxs_CGEvolve:evolve:Cycle count} {Oxs_CGEvolve:evolve:Cycle sub count} {Oxs_CGEvolve:evolve:Energy calc count} Oxs_Exchange6Ngbr::Energy {Oxs_Exchange6Ngbr::Max Spin Ang} {Oxs_Exchange6Ngbr::Stage Max Spin Ang} {Oxs_Exchange6Ngbr::Run Max Spin Ang} Oxs_MinDriver::Iteration {Oxs_MinDriver::Stage iteration} Oxs_MinDriver::Stage Oxs_MinDriver::mx    Oxs_MinDriver::my    Oxs_MinDriver::mz   
# Units:                 A/m                               J                                J                               {}                                   {}                                 {}                                  {}                                     {}                                J                            deg                                  deg                                    deg                             {}                           {}                         {}                 {}                   {}                   {}           
                 2301905.3451820225                1.3542800926038373e-18             1.3542800926038373e-18              0                                    0                                  1                                   1                                      1                                1.3542800926038373e-18           21.324406866739707                   21.324406866739707                     21.324406866739707              0                            0                          0                    0.79331026878446775  0.53546121095664034  0.26928219185706553
                 2292096.7466441956                1.3455401991559934e-18            -8.7398934478437455e-21              1                                    0                                  1                                   1                                      2                                1.3455401991559934e-18           21.237230897914397                   21.324406866739707                     21.324406866739707              1                            1                          0                    0.79333010306492813  0.5354748575472803   0.26928902476416849
                 2223303.1947681811                1.2852883536820587e-18            -6.0251845473934841e-20              2                                    0                                  1                                   1                                      3                                1.2852883536820587e-18           20.627030636913691                   21.324406866739707                     21.324406866739707              2                            2                          0                    0.79346715220002773  0.53556913872545386  0.26933623368269338
                 1665815.1156032921                8.6201345779443142e-19            -4.2327489588762721e-19              3                                    0                                  1                                   1                                      4                                8.6201345779443142e-19           17.894248877352538                   21.324406866739707                     21.324406866739707              3                            3                          0                    0.79445023093011236  0.53624490838118277  0.26967474629737948
                 614869.76335966447                2.6806807196307747e-19            -5.93945385831354e-19              4                                    0                                  1                                   1                                      5                                2.6806807196307747e-19           13.704991215208322                   21.324406866739707                     21.324406866739707              4                            4                          0                    0.79600732176710787  0.53731769192093715  0.27021363869968607
                 609723.55868335161                2.6451345988342721e-19            -3.5546120796502744e-21              5                                    0                                  2                                   0                                      6                                2.6451345988342721e-19           13.687302939163178                   21.324406866739707                     21.324406866739707              5                            5                          0                    0.79602210976512033  0.53732777052809566  0.27021873004632541
                 573685.83763299685                2.4050722863202429e-19            -2.400623125140289e-20              6                                    0                                  2                                   0                                      7                                2.4050722863202429e-19           13.563625551146012                   21.324406866739707                     21.324406866739707              6                            6                          0                    0.79612286617969208  0.53739642836779145  0.27025341352017734
                 308837.54493200267                1.037516202236274e-19            -1.3675560840839689e-19              7                                    0                                  2                                   0                                      8                                1.037516202236274e-19           12.583914645316771                   21.324406866739707                     21.324406866739707              7                            7                          0                    0.79675451660004415  0.53782663095291972  0.27047071764071962
                 312670.46012044925                6.4736302469919599e-20            -3.9015317753707811e-20              8                                    1                                  2                                   0                                      10                               6.4736302469919599e-20           11.727820504141951                   21.324406866739707                     21.324406866739707              8                            8                          0                    0.79705540972130362  0.53803255297682406  0.27057464497330097
                 547643.20720011985                5.470497821227345e-20            -1.0031324257646146e-20              9                                    1                                  3                                   1                                      11                               5.470497821227345e-20           8.0516762918112033                   21.324406866739707                     21.324406866739707              9                            9                          0                    0.79745878491288558  0.53830617294130356  0.27071233806974693
                 228287.91864150128                2.652856568458823e-20            -2.8176412527685223e-20              9                                    2                                  3                                   1                                      12                               2.652856568458823e-20           9.7491076554570579                   21.324406866739707                     21.324406866739707              10                           10                         0                    0.79739476368142204  0.53826200091417375  0.27069005074030589
# Table End
