# ODT 1.0
# Table Start
# Title: mmArchive Data Table, Wed Jun 16 18:50:22 EDT 2010
# Columns: {Oxs_CGEvolve:evolve:Max mxHxm} {Oxs_CGEvolve:evolve:Total energy} {Oxs_CGEvolve:evolve:Delta E} {Oxs_CGEvolve:evolve:Bracket count} {Oxs_CGEvolve:evolve:Line min count} {Oxs_CGEvolve:evolve:Cycle count} {Oxs_CGEvolve:evolve:Cycle sub count} {Oxs_CGEvolve:evolve:Energy calc count} Oxs_Exchange6Ngbr::Energy {Oxs_Exchange6Ngbr::Max Spin Ang} {Oxs_Exchange6Ngbr::Stage Max Spin Ang} {Oxs_Exchange6Ngbr::Run Max Spin Ang} Oxs_MinDriver::Iteration {Oxs_MinDriver::Stage iteration} Oxs_MinDriver::Stage Oxs_MinDriver::mx    Oxs_MinDriver::my    Oxs_MinDriver::mz   
# Units:                 A/m                               J                                J                               {}                                   {}                                 {}                                  {}                                     {}                                J                            deg                                  deg                                    deg                             {}                           {}                         {}                 {}                   {}                   {}           
                 368008.58373830991                2.497674068847166e-21             2.497674068847166e-21              0                                    0                                  1                                   1                                      1                                2.497674068847166e-21           7.3577308403039217                   7.3577308403039217                     7.3577308403039217              0                            0                          0                    0.76522891701851914  0.56943388191167177  0.29334742801197217
                 363033.89117688651                2.4303331181599508e-21            -6.7340950687215018e-23              1                                    0                                  1                                   1                                      2                                2.4303331181599508e-21           7.257730840303922                    7.3577308403039217                     7.3577308403039217              1                            1                          0                    0.76527156221179515  0.56946561570715704  0.2933637758753192 
                 328181.56553389411                1.9846302103052628e-21            -4.4570290785468812e-22              2                                    0                                  1                                   1                                      3                                1.9846302103052628e-21           6.5577436338653268                   7.3577308403039217                     7.3577308403039217              2                            2                          0                    0.76555375385305957  0.5696756044806528   0.29347195290617933
                 48365.10218807905                 4.2965824022903937e-23            -1.9416643862823588e-21              3                                    0                                  1                                   1                                      4                                4.2965824022903937e-23           0.96437126318437205                  7.3577308403039217                     7.3577308403039217              3                            3                          0                    0.76678188452084239  0.57058949991520469  0.29394275185881219
                 127.55020457123398                2.9880680655083131e-28            -4.2965525216097384e-23              4                                    1                                  1                                   1                                      6                                2.9880680655083131e-28           0.002543154849055141                  7.3577308403039217                     7.3577308403039217              4                            4                          0                    0.76680903858934868  0.5706097062172607   0.29395316126177551
                 0.00011713199971774709               2.5198766499346395e-40            -2.9880680655057934e-28              4                                    3                                  1                                   1                                      8                                2.5198766499346395e-40           0                                    7.3577308403039217                     7.3577308403039217              5                            5                          0                    0.76680903877819029  0.57060970635778441  0.29395316133416716
# Table End
