# ODT 1.0
# Table Start
# Title: mmArchive Data Table, Wed Jun 16 18:50:30 EDT 2010
# Columns: {Oxs_CGEvolve:evolve:Max mxHxm} {Oxs_CGEvolve:evolve:Total energy} {Oxs_CGEvolve:evolve:Delta E} {Oxs_CGEvolve:evolve:Bracket count} {Oxs_CGEvolve:evolve:Line min count} {Oxs_CGEvolve:evolve:Cycle count} {Oxs_CGEvolve:evolve:Cycle sub count} {Oxs_CGEvolve:evolve:Energy calc count} Oxs_Exchange6Ngbr::Energy {Oxs_Exchange6Ngbr::Max Spin Ang} {Oxs_Exchange6Ngbr::Stage Max Spin Ang} {Oxs_Exchange6Ngbr::Run Max Spin Ang} Oxs_MinDriver::Iteration {Oxs_MinDriver::Stage iteration} Oxs_MinDriver::Stage Oxs_MinDriver::mx    Oxs_MinDriver::my    Oxs_MinDriver::mz   
# Units:                 A/m                               J                                J                               {}                                   {}                                 {}                                  {}                                     {}                                J                            deg                                  deg                                    deg                             {}                           {}                         {}                 {}                   {}                   {}           
                 436928.15921677789                3.6091848201141367e-20             3.6091848201141367e-20              0                                    0                                  1                                   1                                      1                                3.6091848201141367e-20           20.124233173400466                   20.124233173400466                     20.124233173400466              0                            0                          0                    0.778455864987455    0.55053510755547952  0.28097814459234138
                 434187.51736094657                3.5711599649871129e-20            -3.8024855127023939e-22              1                                    0                                  1                                   1                                      2                                3.5711599649871129e-20           20.035740215844438                   20.124233173400466                     20.124233173400466              1                            1                          0                    0.77849832194117663  0.55056464576600317  0.28099381586575073
                 414992.62292509346                3.3111032043255244e-20            -2.6005676066158851e-21              2                                    0                                  1                                   1                                      3                                3.3111032043255244e-20           19.416413577333582                   20.124233173400466                     20.124233173400466              2                            2                          0                    0.77878921047803384  0.55076705452923302  0.28110118637255627
                 291725.73504970514                1.6187884961840434e-20            -1.692314708141481e-20              3                                    0                                  1                                   1                                      4                                1.6187884961840434e-20           14.476695732210734                   20.124233173400466                     20.124233173400466              3                            3                          0                    0.78071769245087896  0.55210956438869063  0.28181346460984297
                 182826.7179511709                 4.0519632127074692e-21            -1.2135921749132965e-20              4                                    0                                  1                                   1                                      5                                4.0519632127074692e-21           6.1167266167811656                   20.124233173400466                     20.124233173400466              4                            4                          0                    0.78246302945060009  0.55329716317602795  0.28247169010971013
                 146890.80807530603                3.1426514622121335e-21            -9.0931175049533547e-22              4                                    1                                  1                                   1                                      6                                3.1426514622121335e-21           5.1394493397456253                   20.124233173400466                     20.124233173400466              5                            5                          0                    0.7824465441671461   0.55329776742547032  0.28246027651487599
                 61714.380140398025                9.3631382647179287e-22            -2.2063376357403408e-21              5                                    2                                  2                                   2                                      8                                9.3631382647179287e-22           2.4930134588289103                   20.124233173400466                     20.124233173400466              6                            6                          0                    0.78285715350343932  0.55358568381912732  0.28260988495204015
                 87888.882321617668                5.7407811353633184e-22            -3.6223571293546104e-22              6                                    2                                  3                                   3                                      9                                5.7407811353633184e-22           2.4488114237260405                   20.124233173400466                     20.124233173400466              7                            7                          0                    0.78304370085149722  0.55371628273982809  0.28267785790230293
                 32736.245661055447                2.6447029619315722e-22            -3.0960781734317462e-22              6                                    3                                  3                                   3                                      10                               2.6447029619315722e-22           1.4575956490647843                   20.124233173400466                     20.124233173400466              8                            8                          0                    0.78303661201894015  0.55371099274862157  0.28267478320622569
                 16793.781353360748                1.3181248819935416e-22            -1.3265780799380306e-22              7                                    4                                  4                                   4                                      12                               1.3181248819935416e-22           1.0092814779748076                   20.124233173400466                     20.124233173400466              9                            9                          0                    0.78308783312685526  0.55374688299679264  0.28269339905680274
                 15561.382752628037                5.6069401783102823e-23            -7.574308641625135e-23              8                                    4                                  5                                   5                                      13                               5.6069401783102823e-23           0.6138310042115539                   20.124233173400466                     20.124233173400466              10                           10                         0                    0.78314158859297145  0.55378483744921736  0.28271293679786563
# Table End
