# ODT 1.0
# Table Start
# Title: mmArchive Data Table, Wed Jun 16 18:50:44 EDT 2010
# Columns: {Oxs_CGEvolve:evolve:Max mxHxm} {Oxs_CGEvolve:evolve:Total energy} {Oxs_CGEvolve:evolve:Delta E} {Oxs_CGEvolve:evolve:Bracket count} {Oxs_CGEvolve:evolve:Line min count} {Oxs_CGEvolve:evolve:Cycle count} {Oxs_CGEvolve:evolve:Cycle sub count} {Oxs_CGEvolve:evolve:Energy calc count} Oxs_Exchange6Ngbr::Energy {Oxs_Exchange6Ngbr::Max Spin Ang} {Oxs_Exchange6Ngbr::Stage Max Spin Ang} {Oxs_Exchange6Ngbr::Run Max Spin Ang} Oxs_MinDriver::Iteration {Oxs_MinDriver::Stage iteration} Oxs_MinDriver::Stage Oxs_MinDriver::mx    Oxs_MinDriver::my    Oxs_MinDriver::mz   
# Units:                 A/m                               J                                J                               {}                                   {}                                 {}                                  {}                                     {}                                J                            deg                                  deg                                    deg                             {}                           {}                         {}                 {}                   {}                   {}           
                 1084294.7262883796                4.3509686778548046e-20             4.3509686778548046e-20              0                                    0                                  1                                   1                                      1                                4.3509686778548046e-20           20.124233173400466                   20.124233173400466                     20.124233173400466              0                            0                          0                    0.78102551995263969  0.54760358164422562  0.2766206617629654 
                 1078298.8402987786                4.3156482839555301e-20            -3.5320393899274612e-22              1                                    0                                  1                                   1                                      2                                4.3156482839555301e-20           20.029413534843869                   20.124233173400466                     20.124233173400466              1                            1                          0                    0.78105401992736145  0.54762357674470619  0.27663134717281529
                 1036251.0015179801                4.0731992360331114e-20            -2.4244904792241834e-21              2                                    0                                  1                                   1                                      3                                4.0731992360331114e-20           19.365829757094264                   20.124233173400466                     20.124233173400466              2                            2                          0                    0.78125026844442691  0.54776125882741367  0.27670493055917056
                 695990.4668701737                 2.4384248426281103e-20            -1.6347743934050014e-20              3                                    0                                  1                                   1                                      4                                2.4384248426281103e-20           14.075858468436389                   20.124233173400466                     20.124233173400466              3                            3                          0                    0.78261429839919561  0.54871824216483811  0.27721706677718411
                 271798.31323231535                7.4623749094424433e-21            -1.6921873516838659e-20              4                                    0                                  1                                   1                                      5                                7.4623749094424433e-21           8.0466132761383378                   20.124233173400466                     20.124233173400466              4                            4                          0                    0.78440782693326638  0.54998070005533362  0.27790579899902496
                 266535.54443077801                7.3079682241404792e-21            -1.5440668530196398e-22              5                                    0                                  2                                   0                                      6                                7.3079682241404792e-21           8.0204823651798165                   20.124233173400466                     20.124233173400466              5                            5                          0                    0.7844274058017372   0.54999458750058861  0.2779128807446819 
                 244173.16664489414                6.2977114052478562e-21            -1.0102568188926236e-21              6                                    0                                  2                                   0                                      7                                6.2977114052478562e-21           7.838241551613387                    20.124233173400466                     20.124233173400466              6                            6                          0                    0.7845587564173776   0.55008766342453574  0.27796036138246955
                 183725.78499681887                2.6670978776825149e-21            -3.6306135275653413e-21              7                                    0                                  2                                   0                                      8                                2.6670978776825149e-21           6.4343042511029882                   20.124233173400466                     20.124233173400466              7                            7                          0                    0.78524863176341253  0.55057385508459933  0.27820732593983916
                 112193.65358449412                1.0558428612956453e-21            -1.6112550163868694e-21              8                                    0                                  3                                   1                                      9                                1.0558428612956453e-21           5.8368899124626621                   20.124233173400466                     20.124233173400466              8                            8                          0                    0.78571566234441403  0.55089249596182288  0.27837282703685184
                 97305.683818676131                9.8159610079438433e-22            -7.4246760501260857e-23              8                                    1                                  3                                   1                                      10                               9.8159610079438433e-22           5.9404133180999139                   20.124233173400466                     20.124233173400466              9                            9                          0                    0.78567589235736834  0.55086560664925921  0.27835885192293269
                 67328.102167188888                6.0451937529349312e-22            -3.770767255008913e-22              9                                    2                                  4                                   2                                      12                               6.0451937529349312e-22           4.5824191424171188                   20.124233173400466                     20.124233173400466              10                           10                         0                    0.7858549047968002   0.55098497662506396  0.27842126711724957
# Table End
