# ODT 1.0
# Table Start
# Title: mmArchive Data Table, Wed Jun 16 18:50:46 EDT 2010
# Columns: {Oxs_CGEvolve:evolve:Max mxHxm} {Oxs_CGEvolve:evolve:Total energy} {Oxs_CGEvolve:evolve:Delta E} {Oxs_CGEvolve:evolve:Bracket count} {Oxs_CGEvolve:evolve:Line min count} {Oxs_CGEvolve:evolve:Cycle count} {Oxs_CGEvolve:evolve:Cycle sub count} {Oxs_CGEvolve:evolve:Energy calc count} Oxs_Exchange6Ngbr::Energy {Oxs_Exchange6Ngbr::Max Spin Ang} {Oxs_Exchange6Ngbr::Stage Max Spin Ang} {Oxs_Exchange6Ngbr::Run Max Spin Ang} Oxs_MinDriver::Iteration {Oxs_MinDriver::Stage iteration} Oxs_MinDriver::Stage Oxs_MinDriver::mx    Oxs_MinDriver::my    Oxs_MinDriver::mz   
# Units:                 A/m                               J                                J                               {}                                   {}                                 {}                                  {}                                     {}                                J                            deg                                  deg                                    deg                             {}                           {}                         {}                 {}                   {}                   {}           
                 1777606.8313717772                8.8295917726819502e-19             8.8295917726819502e-19              0                                    0                                  1                                   1                                      1                                8.8295917726819502e-19           21.683959494601929                   21.683959494601929                     21.683959494601929              0                            0                          0                    0.79145474809048633  0.53746129392430786  0.27109386771499899
                 1767269.1469952699                8.7601500632062301e-19            -6.9441709475720785e-21              1                                    0                                  1                                   1                                      2                                8.7601500632062301e-19           21.640325129254993                   21.683959494601929                     21.683959494601929              1                            1                          0                    0.79147936207258496  0.53747817515916096  0.27110241234638566
                 1694794.3809419677                8.2829541558176781e-19            -4.7719590738855102e-20              2                                    0                                  1                                   1                                      3                                8.2829541558176781e-19           21.334923336981952                   21.683959494601929                     21.683959494601929              2                            2                          0                    0.79164894278574582  0.5375944744225426   0.27116127789281391
                 1109394.3150128669                5.0289942649404706e-19            -3.253959890877208e-19              3                                    0                                  1                                   1                                      4                                5.0289942649404706e-19           18.895060873992477                   21.683959494601929                     21.683959494601929              3                            3                          0                    0.79283373347802388  0.53840687466036274  0.27157248563829889
                 460045.45715617231                1.3138066773899116e-19            -3.7151875875505585e-19              4                                    0                                  1                                   1                                      5                                1.3138066773899116e-19           13.517896870421128                   21.683959494601929                     21.683959494601929              4                            4                          0                    0.7944446848905824   0.53951605533250457  0.27213510065316898
                 456136.11686752242                1.2929334267275678e-19            -2.0873250662343697e-21              5                                    0                                  2                                   0                                      6                                1.2929334267275678e-19           13.47409297774607                    21.683959494601929                     21.683959494601929              5                            5                          0                    0.794458925021019    0.5395257568172982   0.27213996961262449
                 428771.06695577077                1.1539609199505591e-19            -1.3897250677700883e-20              6                                    0                                  2                                   0                                      7                                1.1539609199505591e-19           13.167478317452657                   21.683959494601929                     21.683959494601929              6                            6                          0                    0.79455539704825651  0.53959150090246033  0.27217296027154225
                 254938.65409019633                4.9254226481027391e-20            -6.6141865514028515e-20              7                                    0                                  2                                   0                                      8                                4.9254226481027391e-20           10.716239107920725                   21.683959494601929                     21.683959494601929              7                            7                          0                    0.79512507045770864  0.53998051163993399  0.27236770322239995
                 421594.24393843859                4.4991435625064358e-20            -4.2627908559630327e-21              8                                    1                                  2                                   0                                      10                               4.4991435625064358e-20           9.9174294965777321                   21.683959494601929                     21.683959494601929              8                            8                          0                    0.7952333605100832   0.54005462352875211  0.27240449037687131
                 348064.29078947642                2.0721657645296631e-20            -2.4269777979767727e-20              9                                    1                                  3                                   1                                      11                               2.0721657645296631e-20           5.2609651105527755                   21.683959494601929                     21.683959494601929              9                            9                          0                    0.7956160716673828   0.54031634792689054  0.27253529077141825
                 181047.30199258673                1.5971776209006615e-20            -4.7498814362900179e-21              9                                    2                                  3                                   1                                      12                               1.5971776209006615e-20           6.5979918079361584                   21.683959494601929                     21.683959494601929              10                           10                         0                    0.79557087882923649  0.54028541404804331  0.2725199950775497 
# Table End
