# ODT 1.0
# Table Start
# Title: mmArchive Data Table, Wed Jun 16 18:50:11 EDT 2010
# Columns: {Oxs_CGEvolve:evolve:Max mxHxm} {Oxs_CGEvolve:evolve:Total energy} {Oxs_CGEvolve:evolve:Delta E} {Oxs_CGEvolve:evolve:Bracket count} {Oxs_CGEvolve:evolve:Line min count} {Oxs_CGEvolve:evolve:Cycle count} {Oxs_CGEvolve:evolve:Cycle sub count} {Oxs_CGEvolve:evolve:Energy calc count} Oxs_Exchange6Ngbr::Energy {Oxs_Exchange6Ngbr::Max Spin Ang} {Oxs_Exchange6Ngbr::Stage Max Spin Ang} {Oxs_Exchange6Ngbr::Run Max Spin Ang} Oxs_MinDriver::Iteration {Oxs_MinDriver::Stage iteration} Oxs_MinDriver::Stage Oxs_MinDriver::mx    Oxs_MinDriver::my    Oxs_MinDriver::mz   
# Units:                 A/m                               J                                J                               {}                                   {}                                 {}                                  {}                                     {}                                J                            deg                                  deg                                    deg                             {}                           {}                         {}                 {}                   {}                   {}           
                 2436344.4367518164                1.5840839686949007e-18             1.5840839686949007e-18              0                                    0                                  1                                   1                                      1                                1.5840839686949007e-18           22.364963086693042                   22.364963086693042                     22.364963086693042              0                            0                          0                    0.79498201969616611  0.53298322879866999  0.26978879871701555
                 2425262.1695360481                1.5727851544358154e-18            -1.1298814259085412e-20              1                                    0                                  1                                   1                                      2                                1.5727851544358154e-18           22.297310569294243                   22.364963086693042                     22.364963086693042              1                            1                          0                    0.79500671875407192  0.53300000178078544  0.26979727358893613
                 2347551.4098382108                1.494952871376687e-18            -7.7832283059128364e-20              2                                    0                                  1                                   1                                      3                                1.494952871376687e-18           21.823758115027903                   22.364963086693042                     22.364963086693042              2                            2                          0                    0.79517713910501642  0.5331157324327791   0.2698557467419847 
                 1718794.2485723679                9.5208246870278868e-19            -5.428704026738982e-19              3                                    0                                  1                                   1                                      4                                9.5208246870278868e-19           18.059565657595829                   22.364963086693042                     22.364963086693042              3                            3                          0                    0.79638415028618093  0.5339354210261682   0.27026983302253116
                 675031.15646822727                2.2451894691163699e-19            -7.2756352179115178e-19              4                                    0                                  1                                   1                                      5                                2.2451894691163699e-19           11.197376497014353                   22.364963086693042                     22.364963086693042              4                            4                          0                    0.79816805835333327  0.53514876749327889  0.27088376103364298
                 668706.71972317598                2.2124177649630728e-19            -3.2771704153297365e-21              5                                    0                                  2                                   0                                      6                                2.2124177649630728e-19           11.156418934989309                   22.364963086693042                     22.364963086693042              5                            5                          0                    0.79818076777540303  0.53515736031453509  0.27088809459896773
                 624424.44753302494                1.9915354555033382e-19            -2.208823094597344e-20              6                                    0                                  2                                   0                                      7                                1.9915354555033382e-19           10.869716483280746                   22.364963086693042                     22.364963086693042              6                            6                          0                    0.79826712086413854  0.53521573323537563  0.2709175354913354 
                 309201.72497104562                7.6201254006507711e-20            -1.229522915438261e-19              7                                    0                                  2                                   0                                      8                                7.6201254006507711e-20           8.5765744777384612                   22.364963086693042                     22.364963086693042              7                            7                          0                    0.79879276167140045  0.53557113015597924  0.2710967733182727 
                 300786.06076235895                4.6640669815713147e-20            -2.956058419079457e-20              8                                    1                                  2                                   0                                      10                               4.6640669815713147e-20           6.7742314047882433                   22.364963086693042                     22.364963086693042              8                            8                          0                    0.79899912919795546  0.53571232611992925  0.27116767188564683
                 450745.76598622825                4.3318035680186831e-20            -3.3226341355263118e-21              9                                    1                                  3                                   1                                      11                               4.3318035680186831e-20           5.0021559334608314                   22.364963086693042                     22.364963086693042              9                            9                          0                    0.79923527267927785  0.53587298134834249  0.27124891531970013
                 155752.76721746221                1.5184984307415846e-20            -2.8133051372770988e-20              9                                    2                                  3                                   1                                      12                               1.5184984307415846e-20           3.9535619809463434                   22.364963086693042                     22.364963086693042              10                           10                         0                    0.79923360505735408  0.53587103155563964  0.27124772993208329
# Table End
