# ODT 1.0
# Table Start
# Title: mmArchive Data Table, Wed Jun 16 18:50:45 EDT 2010
# Columns: {Oxs_CGEvolve:evolve:Max mxHxm} {Oxs_CGEvolve:evolve:Total energy} {Oxs_CGEvolve:evolve:Delta E} {Oxs_CGEvolve:evolve:Bracket count} {Oxs_CGEvolve:evolve:Line min count} {Oxs_CGEvolve:evolve:Cycle count} {Oxs_CGEvolve:evolve:Cycle sub count} {Oxs_CGEvolve:evolve:Energy calc count} Oxs_Exchange6Ngbr::Energy {Oxs_Exchange6Ngbr::Max Spin Ang} {Oxs_Exchange6Ngbr::Stage Max Spin Ang} {Oxs_Exchange6Ngbr::Run Max Spin Ang} Oxs_MinDriver::Iteration {Oxs_MinDriver::Stage iteration} Oxs_MinDriver::Stage Oxs_MinDriver::mx    Oxs_MinDriver::my    Oxs_MinDriver::mz   
# Units:                 A/m                               J                                J                               {}                                   {}                                 {}                                  {}                                     {}                                J                            deg                                  deg                                    deg                             {}                           {}                         {}                 {}                   {}                   {}           
                 720374.63330477464                1.4545511805885049e-20             1.4545511805885049e-20              0                                    0                                  1                                   1                                      1                                1.4545511805885049e-20           14.708089565782023                   14.708089565782023                     14.708089565782023              0                            0                          0                    0.77358702832683834  0.55272879820748078  0.28771424094088172
                 715113.49782102671                1.4373807969235708e-20            -1.7170383664934222e-22              1                                    0                                  1                                   1                                      2                                1.4373807969235708e-20           14.641932058386555                   14.708089565782023                     14.708089565782023              1                            1                          0                    0.7736250465507778   0.55275323200645732  0.28772794894936587
                 678250.25497776153                1.3206451577151099e-20            -1.1673563920846092e-21              2                                    0                                  1                                   1                                      3                                1.3206451577151099e-20           14.179228682840657                   14.708089565782023                     14.708089565782023              2                            2                          0                    0.77388465535918205  0.55292049380557884  0.28782161956090929
                 381807.89456291194                6.0573340666564733e-21            -7.1491175104946253e-21              3                                    0                                  1                                   1                                      4                                6.0573340666564733e-21           10.515587561043269                   14.708089565782023                     14.708089565782023              3                            3                          0                    0.77555687791247752  0.55400989520241695  0.28842500852584485
                 378085.19594768173                5.0231813837784625e-21            -1.0341526828780101e-21              4                                    0                                  1                                   1                                      5                                5.0231813837784625e-21           8.3754778071408413                   14.708089565782023                     14.708089565782023              4                            4                          0                    0.77679453464957793  0.55458117096861681  0.2887746542857092 
                 203221.01128119315                2.5959461664217312e-21            -2.4272352173567312e-21              4                                    1                                  1                                   1                                      6                                2.5959461664217312e-21           8.0316336620757589                   14.708089565782023                     14.708089565782023              5                            5                          0                    0.77671250002592662  0.55471601995944175  0.28881741309972481
                 259176.41969071439                1.1406769405924823e-21            -1.455269225829249e-21              5                                    1                                  2                                   2                                      7                                1.1406769405924823e-21           4.4164393080832083                   14.708089565782023                     14.708089565782023              6                            6                          0                    0.77792414917349473  0.55558985516492376  0.2892606203456235 
                 134401.67739727974                4.8450426727296991e-22            -6.5617267331951245e-22              5                                    2                                  2                                   2                                      8                                4.8450426727296991e-22           2.2826111440010846                   14.708089565782023                     14.708089565782023              7                            7                          0                    0.77797624005773969  0.55561981081213929  0.28928065475330156
                 26222.543874856638                4.8337851932415936e-23            -4.3616641534055398e-22              6                                    3                                  3                                   3                                      10                               4.8337851932415936e-23           1.4524810751691053                   14.708089565782023                     14.708089565782023              8                            8                          0                    0.77812772099117888  0.55572248308790806  0.28933544346571327
                 17149.350939645876                1.2543681759993846e-23            -3.5794170172422088e-23              7                                    4                                  4                                   4                                      12                               1.2543681759993846e-23           0.42618298407497041                  14.708089565782023                     14.708089565782023              9                            9                          0                    0.77815549373379878  0.55574069094258727  0.28934538789278613
                 15121.312280824752                1.0264972419104896e-23            -2.2787093408889492e-24              8                                    4                                  5                                   5                                      13                               1.0264972419104896e-23           0.38577466086756529                  14.708089565782023                     14.708089565782023              10                           10                         0                    0.77815647681411704  0.55574142163019324  0.28934568072702699
# Table End
