# ODT 1.0
# Table Start
# Title: mmArchive Data Table, Wed Jun 16 18:50:42 EDT 2010
# Columns: {Oxs_CGEvolve:evolve:Max mxHxm} {Oxs_CGEvolve:evolve:Total energy} {Oxs_CGEvolve:evolve:Delta E} {Oxs_CGEvolve:evolve:Bracket count} {Oxs_CGEvolve:evolve:Line min count} {Oxs_CGEvolve:evolve:Cycle count} {Oxs_CGEvolve:evolve:Cycle sub count} {Oxs_CGEvolve:evolve:Energy calc count} Oxs_Exchange6Ngbr::Energy {Oxs_Exchange6Ngbr::Max Spin Ang} {Oxs_Exchange6Ngbr::Stage Max Spin Ang} {Oxs_Exchange6Ngbr::Run Max Spin Ang} Oxs_MinDriver::Iteration {Oxs_MinDriver::Stage iteration} Oxs_MinDriver::Stage Oxs_MinDriver::mx    Oxs_MinDriver::my    Oxs_MinDriver::mz   
# Units:                 A/m                               J                                J                               {}                                   {}                                 {}                                  {}                                     {}                                J                            deg                                  deg                                    deg                             {}                           {}                         {}                 {}                   {}                   {}           
                 3158935.9430959858                2.5139774065701529e-16             2.5139774065701529e-16              0                                    0                                  1                                   1                                      1                                2.5139774065701529e-16           25.168622556717597                   25.168622556717597                     25.168622556717597              0                            0                          0                    0.79478573686507903  0.53446488634041922  0.26856525214322674
                 3147672.3499209518                2.4991070777473479e-16            -1.4870328822805173e-18              1                                    0                                  1                                   1                                      2                                2.4991070777473479e-16           25.09337247694523                    25.168622556717597                     25.168622556717597              1                            1                          0                    0.79480541246060843  0.5344782934052188   0.26857197521031795
                 3068635.2810635474                2.3963894968683871e-16            -1.0271758087896064e-17              2                                    0                                  1                                   1                                      3                                2.3963894968683871e-16           24.566627073625753                   25.168622556717597                     25.168622556717597              2                            2                          0                    0.79494151315713668  0.53457102472001916  0.26861847651565096
                 2425741.201221304                 1.6616398945186211e-16            -7.3474960234976613e-17              3                                    0                                  1                                   1                                      4                                1.6616398945186211e-16           20.893795314672712                   25.168622556717597                     25.168622556717597              3                            3                          0                    0.79592733998841747  0.53524238237295518  0.26895516088053861
                 1077917.3331368689                5.1610181603835966e-17            -1.1455380784802614e-16              4                                    0                                  1                                   1                                      5                                5.1610181603835966e-17           16.849049940867072                   25.168622556717597                     25.168622556717597              4                            4                          0                    0.79757017920824702  0.53636347922522309  0.26951732679430002
                 1069515.5577979491                5.1003209763519424e-17            -6.0697184031654642e-19              5                                    0                                  2                                   0                                      6                                5.1003209763519424e-17           16.790100640275202                   25.168622556717597                     25.168622556717597              5                            5                          0                    0.79758208825216759  0.53637154491647354  0.26952137571462603
                 1010672.5796823787                4.6877450070615574e-17            -4.1257596929038486e-18              6                                    0                                  2                                   0                                      7                                4.6877450070615574e-17           16.37746152247021                    25.168622556717597                     25.168622556717597              6                            6                          0                    0.79766348230101569  0.53642666365330971  0.26954904561699961
                 637091.56675199047                2.1635982681957946e-17            -2.5241467388657629e-17              7                                    0                                  2                                   0                                      8                                2.1635982681957946e-17           13.078152319268897                   25.168622556717597                     25.168622556717597              7                            7                          0                    0.79819021443886795  0.53678327220809452  0.2697280813311308 
                 1011360.0542835023                1.8304082199993327e-17            -3.3319004819646187e-18              8                                    0                                  2                                   0                                      9                                1.8304082199993327e-17           9.7470791290425502                   25.168622556717597                     25.168622556717597              8                            8                          0                    0.79854054002913588  0.53702884555735719  0.26985087413695386
                 455362.9940320442                 9.4655547805391184e-18            -8.8385274194542101e-18              8                                    1                                  2                                   0                                      10                               9.4655547805391184e-18           9.3523658201571216                   25.168622556717597                     25.168622556717597              9                            9                          0                    0.79854669579625448  0.53702661949235619  0.26985014602299939
                 540456.4172409703                 5.8314025443914195e-18            -3.6341522361476981e-18              9                                    1                                  3                                   1                                      11                               5.8314025443914195e-18           5.5504292985108901                   25.168622556717597                     25.168622556717597              10                           10                         0                    0.79880693262535751  0.53720388116566564  0.26993906206528834
# Table End
