# ODT 1.0
# Table Start
# Title: mmArchive Data Table, Wed Jun 16 18:50:09 EDT 2010
# Columns: {Oxs_CGEvolve:evolve:Max mxHxm} {Oxs_CGEvolve:evolve:Total energy} {Oxs_CGEvolve:evolve:Delta E} {Oxs_CGEvolve:evolve:Bracket count} {Oxs_CGEvolve:evolve:Line min count} {Oxs_CGEvolve:evolve:Cycle count} {Oxs_CGEvolve:evolve:Cycle sub count} {Oxs_CGEvolve:evolve:Energy calc count} Oxs_Exchange6Ngbr::Energy {Oxs_Exchange6Ngbr::Max Spin Ang} {Oxs_Exchange6Ngbr::Stage Max Spin Ang} {Oxs_Exchange6Ngbr::Run Max Spin Ang} Oxs_MinDriver::Iteration {Oxs_MinDriver::Stage iteration} Oxs_MinDriver::Stage Oxs_MinDriver::mx    Oxs_MinDriver::my    Oxs_MinDriver::mz   
# Units:                 A/m                               J                                J                               {}                                   {}                                 {}                                  {}                                     {}                                J                            deg                                  deg                                    deg                             {}                           {}                         {}                 {}                   {}                   {}           
                 1140916.3371205118                9.4073353915587909e-20             9.4073353915587909e-20              0                                    0                                  1                                   1                                      1                                9.4073353915587909e-20           20.124233173400466                   20.124233173400466                     20.124233173400466              0                            0                          0                    0.778455864987455    0.55053510755547952  0.28097814459234138
                 1135103.6786547524                9.3078935845531241e-20            -9.9441807005667581e-22              1                                    0                                  1                                   1                                      2                                9.3078935845531241e-20           20.031378526337267                   20.124233173400466                     20.124233173400466              1                            1                          0                    0.77849823550617103  0.55056457669494541  0.28099380744618163
                 1094345.0732978184                8.6278623899051812e-20            -6.8003119464794203e-21              2                                    0                                  1                                   1                                      3                                8.6278623899051812e-20           19.381539565440359                   20.124233173400466                     20.124233173400466              2                            2                          0                    0.77878851359023482  0.5507664915383077   0.2811011150945204 
                 764880.54944005969                4.2070814293419035e-20            -4.4207809605632777e-20              3                                    0                                  1                                   1                                      4                                4.2070814293419035e-20           14.200259599257784                   20.124233173400466                     20.124233173400466              3                            3                          0                    0.78071147097051763  0.55210488840657679  0.28181232978862286
                 512945.22671308042                1.0810742512357005e-20            -3.126007178106203e-20              4                                    0                                  1                                   1                                      5                                1.0810742512357005e-20           6.1049836839498823                   20.124233173400466                     20.124233173400466              4                            4                          0                    0.78243321745929084  0.55329368754139385  0.28245699319188822
                 413098.86263453792                8.2923036444116716e-21            -2.5184388679453335e-21              4                                    1                                  1                                   1                                      6                                8.2923036444116716e-21           4.9544547962905936                   20.124233173400466                     20.124233173400466              5                            5                          0                    0.78242034511131719  0.55328960783074888  0.28244917827794497
                 145362.26187823323                2.3072557342660838e-21            -5.9850479101455878e-21              5                                    2                                  2                                   2                                      8                                2.3072557342660838e-21           2.6259690155742277                   20.124233173400466                     20.124233173400466              6                            6                          0                    0.78285844215651101  0.55360019860113119  0.2826083406763979 
                 73487.602716163485                6.8940568463401911e-22            -1.6178500496320645e-21              6                                    3                                  3                                   3                                      10                               6.8940568463401911e-22           1.5895287193130723                   20.124233173400466                     20.124233173400466              7                            7                          0                    0.78302556276060986  0.55371759361579509  0.28266873686062655
                 89621.589067140972                4.8968872959465189e-22            -1.9971695503936727e-22              7                                    3                                  4                                   4                                      11                               4.8968872959465189e-22           1.2576889294535609                   20.124233173400466                     20.124233173400466              8                            8                          0                    0.78310068939090016  0.55377031339455007  0.28269614290906042
                 47062.882587253145                3.6047514411915219e-22            -1.2921358547549965e-22              7                                    4                                  4                                   4                                      12                               3.6047514411915219e-22           1.0469312121707568                   20.124233173400466                     20.124233173400466              9                            9                          0                    0.78308303310461758  0.55375795371692615  0.28268964154404247
                 34314.843845265706                1.359047658330619e-22            -2.2457037828609029e-22              8                                    4                                  5                                   5                                      13                               1.359047658330619e-22           0.55793790928464071                  20.124233173400466                     20.124233173400466              10                           10                         0                    0.78313613622361311  0.55379552133850574  0.28270898893624596
# Table End
