# ODT 1.0
# Table Start
# Title: mmArchive Data Table, Wed Jun 16 18:50:11 EDT 2010
# Columns: {Oxs_CGEvolve:evolve:Max mxHxm} {Oxs_CGEvolve:evolve:Total energy} {Oxs_CGEvolve:evolve:Delta E} {Oxs_CGEvolve:evolve:Bracket count} {Oxs_CGEvolve:evolve:Line min count} {Oxs_CGEvolve:evolve:Cycle count} {Oxs_CGEvolve:evolve:Cycle sub count} {Oxs_CGEvolve:evolve:Energy calc count} Oxs_Exchange6Ngbr::Energy {Oxs_Exchange6Ngbr::Max Spin Ang} {Oxs_Exchange6Ngbr::Stage Max Spin Ang} {Oxs_Exchange6Ngbr::Run Max Spin Ang} Oxs_MinDriver::Iteration {Oxs_MinDriver::Stage iteration} Oxs_MinDriver::Stage Oxs_MinDriver::mx    Oxs_MinDriver::my    Oxs_MinDriver::mz   
# Units:                 A/m                               J                                J                               {}                                   {}                                 {}                                  {}                                     {}                                J                            deg                                  deg                                    deg                             {}                           {}                         {}                 {}                   {}                   {}           
                 2406560.6302312952                2.3817604474331554e-18             2.3817604474331554e-18              0                                    0                                  1                                   1                                      1                                2.3817604474331554e-18           22.448904822299525                   22.448904822299525                     22.448904822299525              0                            0                          0                    0.79546483803419288  0.53249832149286469  0.26899774224170925
                 2395675.6171616716                2.3643730102006063e-18            -1.7387437232548982e-20              1                                    0                                  1                                   1                                      2                                2.3643730102006063e-18           22.359752734850417                   22.448904822299525                     22.448904822299525              1                            1                          0                    0.79548995757034502  0.53251552596606544  0.26900635439123294
                 2319331.9525883766                2.24467069320985e-18            -1.1970231699075634e-19              2                                    0                                  1                                   1                                      3                                2.24467069320985e-18           21.735733606949555                   22.448904822299525                     22.448904822299525              2                            2                          0                    0.79566323387685867  0.53263417367987631  0.26906575196846472
                 1700693.2164724178                1.4144230829105134e-18            -8.3024761029933656e-19              3                                    0                                  1                                   1                                      4                                1.4144230829105134e-18           18.579105703840138                   22.448904822299525                     22.448904822299525              3                            3                          0                    0.79688718134822989  0.53347113289283443  0.26948498477025856
                 780744.46447455103                3.4268979933099557e-19            -1.0717332835795178e-18              4                                    0                                  1                                   1                                      5                                3.4268979933099557e-19           12.112985850134008                   22.448904822299525                     22.448904822299525              4                            4                          0                    0.79865971067634456  0.53469256679977528  0.27009619920238753
                 774442.26134037168                3.3840690087818769e-19            -4.2828984528078383e-21              5                                    0                                  2                                   0                                      6                                3.3840690087818769e-19           12.057925945595587                   22.448904822299525                     22.448904822299525              5                            5                          0                    0.79867097184034697  0.53470013421387896  0.27010003123679632
                 730313.52693912073                3.0938580275077888e-19            -2.9021098127408837e-20              6                                    0                                  2                                   0                                      7                                3.0938580275077888e-19           11.672598583719152                   22.448904822299525                     22.448904822299525              6                            6                          0                    0.79874781720562926  0.53475177226109005  0.27012617880581657
                 382120.5097993614                 1.3773566522665645e-19            -1.716501375241224e-19              7                                    0                                  2                                   0                                      8                                1.3773566522665645e-19           9.2688446327372844                   22.448904822299525                     22.448904822299525              7                            7                          0                    0.79923741916327073  0.535080838203984    0.27029276985407291
                 323435.44539273781                7.3213165406436713e-20            -6.4522499820219752e-20              8                                    1                                  2                                   0                                      10                               7.3213165406436713e-20           7.0624740359277727                   22.448904822299525                     22.448904822299525              8                            8                          0                    0.79951806131274783  0.53527025955286556  0.27038874771865662
                 179879.35052591542                2.69667753472214e-20            -4.624639005921531e-20              9                                    2                                  3                                   1                                      12                               2.69667753472214e-20           4.6143134764062932                   22.448904822299525                     22.448904822299525              9                            9                          0                    0.79974121999373171  0.53542098069450894  0.2704648160913326 
                 145125.83595124696                1.3327175337226939e-20            -1.3639600009994461e-20              10                                   2                                  4                                   2                                      13                               1.3327175337226939e-20           2.7661095206554758                   22.448904822299525                     22.448904822299525              10                           10                         0                    0.7998629710996813   0.53550315117487302  0.2705062008533668 
# Table End
