# ODT 1.0
# Table Start
# Title: mmArchive Data Table, Wed Jun 16 18:50:14 EDT 2010
# Columns: {Oxs_CGEvolve:evolve:Max mxHxm} {Oxs_CGEvolve:evolve:Total energy} {Oxs_CGEvolve:evolve:Delta E} {Oxs_CGEvolve:evolve:Bracket count} {Oxs_CGEvolve:evolve:Line min count} {Oxs_CGEvolve:evolve:Cycle count} {Oxs_CGEvolve:evolve:Cycle sub count} {Oxs_CGEvolve:evolve:Energy calc count} Oxs_Exchange6Ngbr::Energy {Oxs_Exchange6Ngbr::Max Spin Ang} {Oxs_Exchange6Ngbr::Stage Max Spin Ang} {Oxs_Exchange6Ngbr::Run Max Spin Ang} Oxs_MinDriver::Iteration {Oxs_MinDriver::Stage iteration} Oxs_MinDriver::Stage Oxs_MinDriver::mx    Oxs_MinDriver::my    Oxs_MinDriver::mz   
# Units:                 A/m                               J                                J                               {}                                   {}                                 {}                                  {}                                     {}                                J                            deg                                  deg                                    deg                             {}                           {}                         {}                 {}                   {}                   {}           
                 287770.5449846604                 1.5248031496707712e-21             1.5248031496707712e-21              0                                    0                                  1                                   1                                      1                                1.5248031496707712e-21           5.74733545470556                     5.74733545470556                       5.74733545470556                0                            0                          0                    0.74707730126211425  0.59230320297629513  0.29755505355776829
                 282779.8888122043                 1.4722461369864661e-21            -5.2557012684305138e-23              1                                    0                                  1                                   1                                      2                                1.4722461369864661e-21           5.6473354547055603                   5.74733545470556                       5.74733545470556                1                            1                          0                    0.74710974266228225  0.59232892340066901  0.29756797471405044
                 247822.66742195637                1.130108096043251e-21            -3.4213804094321492e-22              2                                    0                                  1                                   1                                      3                                1.130108096043251e-21           4.9473482482669651                   5.74733545470556                       5.74733545470556                2                            2                          0                    0.74732089674618962  0.59249633210122588  0.29765207573631397
                 32400.214678015454                1.9281363651758738e-23            -1.1108267323914924e-21              3                                    0                                  1                                   1                                      4                                1.9281363651758738e-23           0.64602412241398943                  5.74733545470556                       5.74733545470556                3                            3                          0                    0.74800604420123784  0.5930395356377951   0.2979249646158682 
                 52.230536906694027                5.0104547851378055e-29            -1.9281313547210888e-23              3                                    1                                  1                                   1                                      5                                5.0104547851378055e-29           0.0010413965513035443                  5.74733545470556                       5.74733545470556                4                            4                          0                    0.74801793119261484  0.59304895996785367  0.2979296991116826 
                 0.00087207557065176232               1.3968070185433617e-38            -5.0104547837409984e-29              3                                    3                                  1                                   1                                      7                                1.3968070185433617e-38           0                                    5.74733545470556                       5.74733545470556                5                            5                          0                    0.74801793122350424  0.59304895999234364  0.29792969912398559
# Table End
