# ODT 1.0
# Table Start
# Title: mmArchive Data Table, Wed Jun 16 18:50:15 EDT 2010
# Columns: {Oxs_CGEvolve:evolve:Max mxHxm} {Oxs_CGEvolve:evolve:Total energy} {Oxs_CGEvolve:evolve:Delta E} {Oxs_CGEvolve:evolve:Bracket count} {Oxs_CGEvolve:evolve:Line min count} {Oxs_CGEvolve:evolve:Cycle count} {Oxs_CGEvolve:evolve:Cycle sub count} {Oxs_CGEvolve:evolve:Energy calc count} Oxs_Exchange6Ngbr::Energy {Oxs_Exchange6Ngbr::Max Spin Ang} {Oxs_Exchange6Ngbr::Stage Max Spin Ang} {Oxs_Exchange6Ngbr::Run Max Spin Ang} Oxs_MinDriver::Iteration {Oxs_MinDriver::Stage iteration} Oxs_MinDriver::Stage Oxs_MinDriver::mx    Oxs_MinDriver::my    Oxs_MinDriver::mz   
# Units:                 A/m                               J                                J                               {}                                   {}                                 {}                                  {}                                     {}                                J                            deg                                  deg                                    deg                             {}                           {}                         {}                 {}                   {}                   {}           
                 409039.93069669761                2.4760501989887964e-20             2.4760501989887964e-20              0                                    0                                  1                                   1                                      1                                2.4760501989887964e-20           16.237469364944474                   16.237469364944474                     16.237469364944474              0                            0                          0                    0.77501748923487779  0.5590392176678024   0.27389526228479949
                 405544.13625447557                2.4507812447530214e-20            -2.5268954235774834e-22              1                                    0                                  1                                   1                                      2                                2.4507812447530214e-20           16.146020063591411                   16.237469364944474                     16.237469364944474              1                            1                          0                    0.7750544827516469   0.55906532364379402  0.27390866409302861
                 381053.07006184                   2.2781734109448027e-20            -1.7260783380821864e-21              2                                    0                                  1                                   1                                      3                                2.2781734109448027e-20           15.505886292400767                   16.237469364944474                     16.237469364944474              2                            2                          0                    0.77530814026039985  0.55924430280439574  0.27400053699757149
                 220119.08625022208                1.1682744586816299e-20            -1.109898952263173e-20              3                                    0                                  1                                   1                                      4                                1.1682744586816299e-20           10.390171465261822                   16.237469364944474                     16.237469364944474              3                            3                          0                    0.77700190734997288  0.56043878908147926  0.27461354657816422
                 304783.68858149898                4.9121418040354205e-21            -6.7706027827808776e-21              4                                    0                                  1                                   1                                      5                                4.9121418040354205e-21           11.720952890759971                   16.237469364944474                     16.237469364944474              4                            4                          0                    0.77862302342750911  0.56159826649113975  0.27521662587834189
                 180064.53253880344                3.8840855190700009e-21            -1.0280562849654198e-21              4                                    1                                  1                                   1                                      6                                3.8840855190700009e-21           10.15836592450078                    16.237469364944474                     16.237469364944474              5                            5                          0                    0.77854310289797757  0.56153305387700736  0.27517886521798862
                 248390.30075640231                3.4940998675906841e-21            -3.8998565147931677e-22              5                                    1                                  2                                   2                                      7                                3.4940998675906841e-21           6.6421805185465068                   16.237469364944474                     16.237469364944474              6                            6                          0                    0.77901014892413367  0.56195163694297001  0.27538085105482019
                 66766.534195576576                7.4177267612245932e-22            -2.7523271914682245e-21              5                                    2                                  2                                   2                                      8                                7.4177267612245932e-22           3.204807063441367                    16.237469364944474                     16.237469364944474              7                            7                          0                    0.77925604914382984  0.56206793690801449  0.27544263542792419
                 33286.918457750886                3.0399336283638762e-22            -4.377793132860717e-22              6                                    3                                  3                                   3                                      10                               3.0399336283638762e-22           2.0821435374381925                   16.237469364944474                     16.237469364944474              8                            8                          0                    0.77938165298641304  0.56216178990895294  0.27548823705140013
                 45160.345470085646                1.6890694952114987e-22            -1.3508641331523775e-22              7                                    3                                  4                                   4                                      11                               1.6890694952114987e-22           1.4440426730110945                   16.237469364944474                     16.237469364944474              9                            9                          0                    0.77949990160660065  0.56224917218169257  0.27553041710992027
                 27663.367578981073                1.5543003080572603e-22            -1.3476918715423844e-23              7                                    4                                  4                                   4                                      12                               1.5543003080572603e-22           1.5091969112086934                   16.237469364944474                     16.237469364944474              10                           10                         0                    0.77948241494843895  0.56223610498021259  0.27552411336298316
# Table End
