# ODT 1.0
# Table Start
# Title: mmArchive Data Table, Wed Jun 16 18:50:52 EDT 2010
# Columns: {Oxs_RungeKuttaEvolve:evolve:Total energy} {Oxs_RungeKuttaEvolve:evolve:Energy calc count} {Oxs_RungeKuttaEvolve:evolve:Max dm/dt} Oxs_RungeKuttaEvolve:evolve:dE/dt {Oxs_RungeKuttaEvolve:evolve:Delta E} Oxs_UniaxialAnisotropy::Energy Oxs_UniformExchange::Energy {Oxs_UniformExchange::Max Spin Ang} {Oxs_UniformExchange::Stage Max Spin Ang} {Oxs_UniformExchange::Run Max Spin Ang} Oxs_ScriptUZeeman::Energy Oxs_ScriptUZeeman::B Oxs_ScriptUZeeman::Bx Oxs_ScriptUZeeman::By Oxs_ScriptUZeeman::Bz Oxs_TimeDriver::Iteration {Oxs_TimeDriver::Stage iteration} Oxs_TimeDriver::Stage Oxs_TimeDriver::mx   Oxs_TimeDriver::my   Oxs_TimeDriver::mz   {Oxs_TimeDriver::Last time step} {Oxs_TimeDriver::Simulation time}
# Units:                       J                                            {}                                        deg/ns                                 J/s                                  J                                 J                             J                              deg                                    deg                                      deg                               J                      mT                   mT                    mT                    mT                      {}                            {}                          {}                   {}                   {}                   {}                          s                                 s                
                       3.8246175382461758e-23                          1                                           1.1269719071161519                  -3.8514499387476994e-11                 0                                  3.8246175382461758e-23          0                               0                                      0                                        0                                0                       0                    0                     0                     0                       0                             0                           0                     0.99995000374968757  0.0099995000374968751  0                          0                                0                         
                       1.9989981728690399e-23                          5                                           0.8610799556401959                  -3.847401369115124e-11                -1.825619365377136e-23                3.8219563685433243e-23          2.0145115024113527e-28             0.00045966381974256161                    0.00045966381974256161                      0.00045966381974256161             -1.8229783407893086e-23     0.029799093649824731  0                     0.029799093649824731   0                       1                             1                           0                     0.99995003853795827  0.0099960180469616973  6.8851484657706741e-06        4.74268007310128e-13              4.74268007310128e-13       
                       3.1201795183641702e-24                          7                                           0.61640949696513769                 -3.8446047805361914e-11                -1.6869802210326227e-23                3.8201143913178096e-23          5.4492053507918577e-28             0.00075300516649784216                    0.00075300516649784216                      0.00075300516649784216             -3.5081509315349003e-23     0.057359412746133466  0                     0.057359412746133466   0                       2                             2                           0                     0.99995006261729458  0.0099936043440966398  1.154287137094723e-05        4.386404058127556e-13              9.1290841312288365e-13       
                      -1.2279544420188358e-23                          9                                           0.3921346701938771                  -3.8428430468341839e-11                -1.5399723938552528e-23                3.8189579088686687e-23          8.1362760592853039e-28             0.00091426242868744415                    0.00091426242868744415                      0.00091426242868744415             -5.0469937136480971e-23     0.082532521049501192  0                     0.082532521049501192   0                       3                             3                           0                     0.99995007773546696  0.0099920875425346008  1.4372072552047688e-05        4.0065236870631949e-13              1.3135607818292031e-12       
                      -2.3575729486026937e-23                          13                                          0.22744916348370797                 -3.8420300033376964e-11                -1.129618506583858e-23                3.8184318885964129e-23          9.295202985283801e-28             0.00097042504361347938                    0.00097042504361347938                      0.00097042504361347938             -6.1760977892289593e-23     0.10100352009080089  0                     0.10100352009080089   0                       4                             4                           0                     0.99995008461189216  0.009991397374292903  1.5588851321637423e-05        2.939875010793347e-13              1.6075482829085377e-12       
                      -3.1782982416349929e-23                          17                                          0.12410961859484926                 -3.841693048362078e-11                -8.2072529303229912e-24                3.8182220619113117e-23          9.598791101900281e-28             0.00097944700313089316                    0.00097944700313089316                      0.00097944700313089316             -6.9966162914573238e-23     0.11442538137709372  0                     0.11442538137709372   0                       5                             5                           0                     0.99995008735486157  0.009991122095131047  1.6019268816607697e-05        2.136279663105325e-13              1.8211762492190704e-12       
                      -3.9374236234926577e-23                          19                                          0.18761675493535324                 -3.8415710677667316e-11                -7.5912538185766461e-24                3.8181577692619236e-23          9.4658623884297175e-28             0.00096469891284907817                    0.00097944700313089316                      0.00097944700313089316             -7.7556760513784649e-23     0.12684040911598349  0                     0.12684040911598349   0                       6                             6                           0                     0.99995008819533027  0.0099910378521234217  1.607872043548012e-05        1.9760569462918284e-13              2.0187819438482533e-12       
                      -4.51126861453155e-23                          21                                          0.25714880801518747                 -3.841599621331345e-11                -5.7384499103889254e-24                3.8181923167710008e-23          9.1153616562917629e-28             0.00093926064155507244                    0.00097944700313089316                      0.00097944700313089316             -8.329552084919113e-23     0.13622525981936004  0                     0.13622525981936004   0                       7                             7                           0                     0.99995008774370631  0.0099910833290183694  1.5908432088736899e-05        1.4937746581925844e-13              2.1681594096675114e-12       
                      -5.2324103251215553e-23                          23                                          0.35090195427619802                 -3.8417826134525747e-11                -7.2114171059000545e-24                3.8183375680354317e-23          8.4031892548920693e-28             0.00089034765910832173                    0.00097944700313089316                      0.00097944700313089316             -9.0508319250495359e-23     0.14801856931713708  0                     0.14801856931713708   0                       8                             8                           0                     0.9999500858449023   0.0099912741504185679  1.5432409266116596e-05        1.8771532001129863e-13              2.3558747296788103e-12       
                      -6.0910383207303035e-23                          25                                          0.46406455094010646                 -3.8422136887952131e-11                -8.5862799560874866e-24                3.8186589990381542e-23          7.2379817311039661e-28             0.00080850026562065511                    0.00097944700313089316                      0.00097944700313089316             -9.9097696995857691e-23     0.16205891227314209  0                     0.16205891227314209   0                       9                             9                           0                     0.99995008164298005  0.0099916961816690578  1.448645569449813e-05        2.2348587806447524e-13              2.5793606077432853e-12       
                      -7.1160311863330866e-23                          27                                          0.59728346181951275                 -3.8430308346964256e-11                -1.0249928656027821e-23                3.8192549736234119e-23          5.5732767061595522e-28             0.00067952498768448469                    0.00097944700313089316                      0.00097944700313089316             -1.093534189272356e-22     0.17881655788336406  0                     0.17881655788336406   0                       10                            10                          0                     0.99995007385207368  0.0099924782797348437  1.2820006012728216e-05        2.6674499080686552e-13              2.8461055985501509e-12       
                      -8.3264248489438924e-23                          29                                          0.74983001764694956                 -3.8444181270775649e-11                -1.2103936626108061e-23                3.8202576415608301e-23          3.601537504747377e-28             0.00049080834709413687                    0.00097944700313089316                      0.00097944700313089316             -1.2146718505879771e-22     0.19859905912666129  0                     0.19859905912666129   0                       11                            11                          0                     0.99995006074464887  0.0099937931958253706  1.010363427388011e-05        3.1490441209814721e-13              3.1610100106482981e-12       
                      -9.7451299282975804e-23                          31                                          0.92096296154971891                 -3.846623438537844e-11                -1.4187050793536881e-23                3.8218470466457332e-23          2.0379191213668309e-28             0.00035824376091917159                    0.00097944700313089316                      0.00097944700313089316             -1.3566997354134527e-22     0.22177443307039291  0                     0.22177443307039291   0                       12                            12                          0                     0.99995003996707399  0.0099958755494817513  5.8953646912686435e-06        3.6892911742464372e-13              3.5299391280729417e-12       
                      -1.1399383642441316e-22                          33                                          1.1588364038919046                  -3.8499791872885577e-11                -1.6542537141437368e-23                3.824267938803983e-23          2.6721220079908412e-28             0.00038647801990696512                    0.00097944700313089316                      0.00097944700313089316             -1.5223678302465381e-22     0.2487767261789329   0                     0.2487767261789329    0                       13                            13                          0                     0.99995000831984338  0.0099990428067640476 -3.9532438345074878e-07        4.2987396712714962e-13              3.9598130952000919e-12       
                      -1.3324023271510393e-22                          35                                          1.4539159420821468                  -3.8549371406697518e-11                -1.9246396290690753e-23                3.8278580986729064e-23          9.3800482806446264e-28             0.00093748292930132459                    0.00097944700313089316                      0.00097944700313089316             -1.7151975170666105e-22     0.28015652525953455  0                     0.28015652525953455   0                       14                            14                          0                     0.99994996138730152  0.010003730305435334 -9.5685637459750834e-06        4.9959996632759329e-13              4.4594130615276848e-12       
                      -1.5614575388862218e-22                          37                                          1.8004251884122962                  -3.8622984311875818e-11                -2.290552117351825e-23                3.8332218093469304e-23          3.0669568819266601e-27             0.0017670820240565752                    0.0017670820240565752                      0.0017670820240565752             -1.9448103893897341e-22     0.31743940243552232  0                     0.31743940243552232   0                       15                            15                          0                     0.99994989126992517  0.010010713003878784 -2.3049699350770151e-05        5.9364082552288695e-13              5.0530538870505715e-12       
                      -1.8372221719017983e-22                          39                                          2.2072126047676841                  -3.8732364676553666e-11                -2.7576463301557661e-23                3.8412628239728188e-23          8.4911251939207265e-27             0.0029450189828744413                    0.0029450189828744413                      0.0029450189828744413             -2.2214333655510194e-22     0.36221370480934956  0                     0.36221370480934956   0                       16                            16                          0                     0.99994978615334895  0.010021136784087867 -4.2912796736009143e-05        7.1301757534602326e-13              5.7660714623965951e-12       
                      -2.173064515576016e-22                          41                                          2.6826238418997739                  -3.8895604830027463e-11                -3.3584234367421769e-23                3.8534095203239887e-23          2.1156718078570257e-26             0.0046067328553159575                    0.0046067328553159575                      0.0046067328553159575             -2.5586170347892008e-22     0.41654240079965527  0                     0.41654240079965527   0                       17                            17                          0                     0.99994962736501536  0.010036785644979417 -7.234367403589655e-05        8.65325353237298e-13              6.6313968156338929e-12       
                      -2.576740448460333e-22                          43                                          3.2939020558976835                  -3.9134318680705734e-11                -4.036759328843168e-23                3.8714600881667929e-23          4.8668018699875923e-26             0.006893192140045544                    0.006893192140045544                      0.006893192140045544             -2.9643731374640108e-22     0.48149374460591482  0                     0.48149374460591482   0                       18                            18                          0                     0.99994939139795835  0.010059833613425179 -0.00011511188732404778        1.0347782464521108e-12              7.6661750620860037e-12       
                      -3.0426041576983816e-22                          45                                          4.001438244327888                   -3.9465473755370645e-11                -4.6586370923804888e-23                3.8970203079585802e-23          1.0303771319344901e-25             0.0098754480404704189                    0.0098754480404704189                      0.0098754480404704189             -3.4333365656261741e-22     0.55588475695508166  0                     0.55588475695508166   0                       19                            19                          0                     0.99994905726045502  0.01009206854087194 -0.00017411750382736736        1.1855683853267498e-12              8.8517434474127539e-12       
                      -3.6015271862611564e-22                          47                                          4.8202777575167985                  -3.9937837140140188e-11                -5.5892302856277461e-23                3.9344492970045133e-23          2.1068028384223978e-25             0.013878522159019109                    0.013878522159019109                      0.013878522159019109             -3.9970789188000301e-22     0.64419694829453078  0                     0.64419694829453078   0                       20                            20                          0                     0.99994856796754028  0.010138475075382573 -0.00025787894579797581        1.4080739764810709e-12              1.0259817423893824e-11       
                      -4.2915074959632726e-22                          49                                          5.7956622234165023                  -4.0626809416152659e-11                -6.899803097021159e-23                3.9909623977948138e-23          4.265070531544519e-25             0.019370327685876796                    0.019370327685876796                      0.019370327685876796             -4.6948688062742985e-22     0.7515856676820839   0                     0.7515856676820839    0                       21                            21                          0                     0.9999478291958388   0.010206892691656635 -0.0003795099751038104        1.7133304267456588e-12              1.1973147850639483e-11       
                      -5.1378437023689933e-22                          51                                          7.0270383215828316                  -4.1617914761264184e-11                -8.463362064057207e-23                4.076057472878964e-23          8.5078256841424596e-25             0.026795181608694641                    0.026795181608694641                      0.026795181608694641             -5.5539572753410313e-22     0.88051670185077147  0                     0.88051670185077147   0                       22                            22                          0                     0.99994671678305869  0.010306554740056005 -0.00055375790122981624        2.0588826450106829e-12              1.4032030495650167e-11       
                      -6.1807299098425884e-22                          53                                          8.4497017439907012                  -4.3034377751359104e-11                -1.0428862074735959e-22                4.2051534476690175e-23          1.6745211618295512e-24             0.036765892453641133                    0.036765892453641133                      0.036765892453641133             -6.6179904662277862e-22     1.0346983498271631   0                     1.0346983498271631    0                       23                            23                          0                     0.99994502916215644  0.010451074860555479 -0.0008018539651169931        2.4652316229034491e-12              1.6497262118553617e-11       
                      -7.509107368799532e-22                          55                                          10.197494278088742                  -4.510014353675011e-11                -1.3283774589569429e-22                4.4087656519309441e-23          3.3053934580972175e-24             0.050426335819540792                    0.050426335819540792                      0.050426335819540792             -7.9830378685735987e-22     1.2230280400610458   0                     1.2230280400610458    0                       24                            24                          0                     0.99994236741368381  0.010665478710661437 -0.0011624923367088505        3.0166896723007372e-12              1.9513951790854354e-11       
                      -9.201142927036484e-22                          57                                          12.302818473523155                  -4.8061693329832312e-11                -1.6920355582369525e-22                4.7318909740294941e-23          6.479941717049708e-24             0.068825558306325155                    0.068825558306325155                      0.068825558306325155             -9.7391314416099314e-22     1.449438768825815    0                     1.449438768825815     0                       25                            25                          0                     0.99993814329790975  0.010979155386863599 -0.0016781550640787694        3.6361294255470239e-12              2.3150081216401376e-11       
# Table End
