# ODT 1.0
# Table Start
# Title: mmArchive Data Table, Wed Jun 16 18:50:54 EDT 2010
# Columns: {Oxs_RungeKuttaEvolve:evolve:Total energy} {Oxs_RungeKuttaEvolve:evolve:Energy calc count} {Oxs_RungeKuttaEvolve:evolve:Max dm/dt} Oxs_RungeKuttaEvolve:evolve:dE/dt {Oxs_RungeKuttaEvolve:evolve:Delta E} Oxs_UniaxialAnisotropy::Energy Oxs_UniformExchange::Energy {Oxs_UniformExchange::Max Spin Ang} {Oxs_UniformExchange::Stage Max Spin Ang} {Oxs_UniformExchange::Run Max Spin Ang} Oxs_ScriptUZeeman::Energy Oxs_ScriptUZeeman::B Oxs_ScriptUZeeman::Bx Oxs_ScriptUZeeman::By Oxs_ScriptUZeeman::Bz Oxs_TimeDriver::Iteration {Oxs_TimeDriver::Stage iteration} Oxs_TimeDriver::Stage Oxs_TimeDriver::mx   Oxs_TimeDriver::my   Oxs_TimeDriver::mz   {Oxs_TimeDriver::Last time step} {Oxs_TimeDriver::Simulation time}
# Units:                       J                                            {}                                        deg/ns                                 J/s                                  J                                 J                             J                              deg                                    deg                                      deg                               J                      mT                   mT                    mT                    mT                      {}                            {}                          {}                   {}                   {}                   {}                          s                                 s                
                       3.8246175382461758e-23                          1                                           1.1269719071161519                  -3.8514499387476994e-11                 0                                  3.8246175382461758e-23          0                               0                                      0                                        0                                0                       0                    0                     0                     0                       0                             0                           0                     0.99995000374968757  0.0099995000374968751  0                          0                                0                         
                      -9.9787768421662244e-23                          13                                          0.96493629979523876                 -3.847050268232991e-11                -1.3803394380412399e-22                3.8221661016748474e-23          2.167073832023028e-28             0.00039562996562325029                    0.00039562996562325029                      0.00039562996562325029             -1.3800964614579392e-22     0.22558957842302965  0                     0.22558957842302965   0                       1                             1                           0                     0.99995003579621167  0.0099962932388522122  5.1014866122244641e-06        3.5906742484872112e-12              3.5906742484872112e-12       
                      -2.261722435706107e-22                          19                                          2.8090156013714442                  -3.8944105520650336e-11                -1.2638447514894847e-22                3.8570566744031395e-23          2.5718006860830124e-26             0.0050583092389220414                    0.0050583092389220414                      0.0050583092389220414             -2.6476852832150292e-22     0.43084193032317858  0                     0.43084193032317858   0                       2                             2                           0                     0.99994957968739462  0.010041462629375541 -8.1010146363608176e-05        3.2685112167277557e-12              6.8591854652149673e-12       
                      -3.8910006829280654e-22                          25                                          5.2219220803093149                  -4.0213210220725961e-11                -1.6292782472219583e-22                3.9567752701805261e-23          2.8757820864667716e-25             0.016085519708874601                    0.016085519708874601                      0.016085519708874601             -4.2895539920325847e-22     0.68948027932733202  0                     0.68948027932733202   0                       3                             3                           0                     0.99994827610966985  0.010165736947861954 -0.00030641463298428995        4.1229469446855255e-12              1.0982132409900493e-11       
                      -6.5136859102362248e-22                          31                                          8.8749548472364257                  -4.352705867443435e-11                -2.6226852273081594e-22                4.2520732005300276e-23          2.0109077146155378e-24             0.040059554941631728                    0.040059554941631728                      0.040059554941631728             -6.9590023074353827e-22     1.0827499829964784   0                     1.0827499829964784    0                       4                             4                           0                     0.99994441579792637  0.010501887768707519 -0.00088745969842938914        6.284218464977431e-12              1.7266350874877923e-11       
                      -1.1059445828468861e-21                          37                                          14.766177459632971                  -5.164859139611793e-11                -4.5457599182326352e-22                5.1681339694845135e-23          1.1523207013371019e-23             0.08973612882961271                    0.08973612882961271                      0.08973612882961271             -1.1691491295551022e-21     1.6810150705360141   0                     1.6810150705360141    0                       5                             5                           0                     0.9999324403996408   0.011364409684255424 -0.0022950566115085206        9.6154684951419339e-12              2.6881819370019858e-11       
                      -1.2832126872008882e-21                          49                                          16.377468776291998                  -5.5206071429853669e-11                -1.7726810435400222e-22                5.6618662824408244e-23          1.7886558755945543e-23             0.10985260494390507                    0.10985260494390507                      0.10985260494390507             -1.357717908781242e-21     1.8862734311405924   0                     1.8862734311405924    0                       6                             6                           0                     0.99992598591477444  0.011761249871714253 -0.002917612846131071        3.3200926999868469e-12              3.0201912070006707e-11       
                      -1.4572685606430199e-21                          55                                          18.013272765237893                  -5.8840740466516593e-11                -1.7405587344213163e-22                6.2177844798203969e-23          2.5671586313526252e-23             0.12944651212153549                    0.12944651212153549                      0.12944651212153549             -1.5451179917547502e-21     2.0743443445648642   0                     2.0743443445648642    0                       7                             7                           0                     0.99991871842873081  0.012171087252324356 -0.0035491850879254814        3.053770637199049e-12              3.3255682707205754e-11       
                      -1.7683740391139954e-21                          61                                          20.871794323144563                  -6.5469580178189061e-11                -3.1110547847097546e-22                7.3783895973001634e-23          4.321219850290964e-23             0.16407720506372744                    0.16407720506372744                      0.16407720506372744             -1.8853701335899065e-21     2.3812498019602302   0                     2.3812498019602302    0                       8                             8                           0                     0.99990354571700102  0.012937198568536132 -0.0047034156567888983        5.0107105130004532e-12              3.8266393220206206e-11       
                      -2.239402527664163e-21                          67                                          25.531386852539605                  -7.5562134511450645e-11                -4.7102848855016753e-22                9.5122382048340899e-23          7.8029873072766881e-23             0.2143624956421869                     0.2143624956421869                       0.2143624956421869              -2.4125547827852708e-21     2.7874635739831426   0                     2.7874635739831426    0                       9                             9                           0                     0.99987564901613535  0.01414218652111127 -0.0064627478951646382        6.6930446944986728e-12              4.4959437914704881e-11       
                      -2.5063085346453331e-21                          79                                          26.442672083938575                  -8.1117187100051306e-11                -2.6690600698117006e-22                1.0905036024172029e-22          1.0161804094102129e-22             0.24174202256533608                    0.24174202256533608                      0.24174202256533608             -2.7169769358280745e-21     2.9924721900017821   0                     2.9924721900017821    0                       10                            10                          0                     0.99985743990638143  0.014835575788933407 -0.0074496021724614944        3.4083258966519933e-12              4.8367763811356872e-11       
                      -2.7655438737155775e-21                          85                                          28.024037883212074                  -8.6458231483813673e-11                -2.5923533907024468e-22                1.2375732210325107e-22          1.2707110513501995e-22             0.26735969168775875                    0.26735969168775875                      0.26735969168775875             -3.0163723009538488e-21     3.1774293541808007   0                     3.1774293541808007    0                       11                            11                          0                     0.99983821195777711  0.015511636485545153 -0.0083963629909630608        3.0946861108437919e-12              5.1462449922200666e-11       
                      -3.1990867690486578e-21                          91                                          30.561968368937542                  -9.5146853275311507e-11                -4.335428953330801e-22                1.507655085518834e-22          1.74639749698118e-22             0.30854534703546449                    0.30854534703546449                      0.30854534703546449             -3.5244920272986594e-21     3.4605385719645785   0                     3.4605385719645785    0                       12                            12                          0                     0.9998029002148926   0.016641842826058666 -0.009948801155022436        4.7768289720837612e-12              5.6239278894284426e-11       
                      -3.8702643071574445e-21                          97                                          34.804016519679841                  -1.0798145127318524e-10                -6.7117753810878686e-22                1.9801395186203926e-22          2.5925048304423581e-22             0.36848722863905081                    0.36848722863905081                      0.36848722863905081             -4.3275287420637195e-21     3.8473244605469334   0                     3.8473244605469334    0                       13                            13                          0                     0.99974112191016085  0.018379332099595587 -0.012271097180216678        6.6138633103197164e-12              6.2853142204604145e-11       
                      -4.2634048429082919e-21                          109                                         35.744380799986729                  -1.1511454856603388e-10                -3.931405357508471e-22                2.2848811890214373e-22          3.1422242599384301e-22             0.40162155401795779                    0.40162155401795779                      0.40162155401795779             -4.8061153878042786e-21     4.0507987404724988   0                     4.0507987404724988    0                       14                            14                          0                     0.99970127391097363  0.019386620322979622 -0.013586160991209403        3.5250037834685428e-12              6.6378145988072686e-11       
                      -4.6435140634064009e-21                          115                                         37.340480622861556                  -1.2179054405348672e-10                -3.8010922049810926e-22                2.5977660174459694e-22          3.7086727304534818e-22             0.4325396534185269                     0.4325396534185269                       0.4325396534185269              -5.2741579381963459e-21     4.2343235478432453   0                     4.2343235478432453    0                       15                            15                          0                     0.99966035913375506  0.020352495576681524 -0.014827720364923786        3.209289720512213e-12              6.9587435708584899e-11       
                      -5.2745295609452651e-21                          121                                         39.952848921747517                  -1.3238304005484211e-10                -6.3101549753886375e-22                3.1542490284711497e-22          4.7178575215388473e-22             0.48164050869430319                    0.48164050869430319                      0.48164050869430319             -6.0617402159462643e-21     4.5148965579783251   0                     4.5148965579783251    0                       16                            16                          0                     0.99958758493719058  0.021938053612588548 -0.016827985189561301        4.9661725054372075e-12              7.4553608214022106e-11       
                      -6.3274775224189906e-21                          127                                         44.074039081927047                  -1.4888738135311588e-10                -1.0529479614737257e-21                4.177832195186603e-22          6.574522775004453e-22             0.55869280039898928                    0.55869280039898928                      0.55869280039898928             -7.4027130194380965e-21     4.9297582675641713   0                     4.9297582675641713    0                       17                            17                          0                     0.99945370870993411  0.024536570861613639 -0.020014550316126308        7.4918429303437368e-12              8.2045451144365837e-11       
                      -6.7816062383145802e-21                          139                                         45.657484155965001                  -1.5545572238738967e-10                -4.5412871589559014e-22                4.6531224594329924e-22          7.4321049713645713e-22             0.58958929510017188                    0.58958929510017188                      0.58958929510017188             -7.990128981394337e-21     5.0920346508801684   0                     5.0920346508801684    0                       18                            18                          0                     0.99939153714208095  0.025639586539756076 -0.021336587557801573        2.9845141511662913e-12              8.5029965295532131e-11       
                      -7.2073500483469057e-21                          145                                         47.101629563352958                  -1.6145787637590116e-10                -4.2574381003232579e-22                5.1163923544674375e-22          8.2680788683218261e-22             0.61840919360185032                    0.61840919360185032                      0.61840919360185032             -8.5457971706258324e-21     5.2365959037184764   0                     5.2365959037184764    0                       19                            19                          0                     0.99933093329853695  0.026665645246982138 -0.022550600220606627        2.6868438541224041e-12              8.7716809149654533e-11       
                      -7.8045984081176253e-21                          151                                         48.986125763202587                  -1.6953921514078977e-10                -5.9724835977071895e-22                5.793865365325216e-22          9.4870719618389444e-22             0.65728335014999006                    0.65728335014999006                      0.65728335014999006             -9.3326921408340409e-21     5.4284054105589359   0                     5.4284054105589359    0                       20                            20                          0                     0.99924229963359712  0.028092037732636774 -0.024214852653652186        3.6087934590189408e-12              9.1325602608673477e-11       
                      -8.6199294951301688e-21                          157                                         51.36774636913492                   -1.7996750842420475e-10                -8.1533108701254365e-22                6.7685785607248027e-22          1.1233718552992813e-21             0.70838735614792359                    0.70838735614792359                      0.70838735614792359             -1.042015920650193e-20     5.6722289528287817   0                     5.6722289528287817    0                       21                            21                          0                     0.9991147606856684   0.030017130961720973 -0.026420237402082641        4.6654972509316633e-12              9.599109985960514e-11       
                      -9.8996073438961064e-21                          163                                         54.860900167697018                  -1.9509890824047094e-10                -1.2796778487659377e-21                8.4087104442764104e-22          1.4154818767536919e-21             0.78482194420450158                    0.78482194420450158                      0.78482194420450158             -1.215596026507744e-20     6.0200301814793002   0                     6.0200301814793002    0                       22                            22                          0                     0.99890010640588756  0.032994319916871767 -0.029745195221532385        6.8241455575671032e-12              1.0281524541717225e-10       
                      -1.0504798722435059e-20                          175                                         56.109185761050995                  -2.0167779277660737e-10                -6.0519137853895283e-22                9.2290899960366098e-22          1.5605193410465242e-21             0.81882651041092058                    0.81882651041092058                      0.81882651041092058             -1.2988227063085245e-20     6.1719607933013618   0                     6.1719607933013618    0                       23                            23                          0                     0.99879271594837582  0.034385495875749836 -0.031265988152351841        3.0504912575593312e-12              1.0586573667473157e-10       
                      -1.1067995494764244e-20                          181                                         57.377375990353073                  -2.0757266456743026e-10                -5.6319677232918433e-22                1.001768782998563e-21          1.6995567543263283e-21             0.85022257698887727                    0.85022257698887727                      0.85022257698887727             -1.3769321032089136e-20     6.3070927701146458   0                     6.3070927701146458    0                       24                            24                          0                     0.99868947171506217  0.035672363472941393 -0.032654692860811463        2.7522386424843884e-12              1.0861797531721597e-10       
                      -1.1875294635314735e-20                          187                                         59.069647863949967                  -2.1558999895928752e-10                -8.0729914055049099e-22                1.1189278987102557e-21          1.9052226535539684e-21             0.89386119410555187                    0.89386119410555187                      0.89386119410555187             -1.4899445187578958e-20     6.4912898369214664   0                     6.4912898369214664    0                       25                            25                          0                     0.99853605979990401  0.037504870810175749 -0.034603735912307081        3.8152555854812071e-12              1.1243323090269717e-10       
# Table End
