# ODT 1.0
# Table Start
# Title: mmArchive Data Table, Wed Jun 16 18:50:51 EDT 2010
# Columns: {Oxs_RungeKuttaEvolve:evolve:Total energy} {Oxs_RungeKuttaEvolve:evolve:Energy calc count} {Oxs_RungeKuttaEvolve:evolve:Max dm/dt} Oxs_RungeKuttaEvolve:evolve:dE/dt {Oxs_RungeKuttaEvolve:evolve:Delta E} Oxs_UniaxialAnisotropy::Energy Oxs_UniformExchange::Energy {Oxs_UniformExchange::Max Spin Ang} {Oxs_UniformExchange::Stage Max Spin Ang} {Oxs_UniformExchange::Run Max Spin Ang} Oxs_ScriptUZeeman::Energy Oxs_ScriptUZeeman::B Oxs_ScriptUZeeman::Bx Oxs_ScriptUZeeman::By Oxs_ScriptUZeeman::Bz Oxs_TimeDriver::Iteration {Oxs_TimeDriver::Stage iteration} Oxs_TimeDriver::Stage Oxs_TimeDriver::mx   Oxs_TimeDriver::my   Oxs_TimeDriver::mz   {Oxs_TimeDriver::Last time step} {Oxs_TimeDriver::Simulation time}
# Units:                       J                                            {}                                        deg/ns                                 J/s                                  J                                 J                             J                              deg                                    deg                                      deg                               J                      mT                   mT                    mT                    mT                      {}                            {}                          {}                   {}                   {}                   {}                          s                                 s                
                       3.8246175382461758e-23                          1                                           1.1269719071161519                  -3.8514499387476994e-11                 0                                  3.8246175382461758e-23          0                               0                                      0                                        0                                0                       0                    0                     0                     0                       0                             0                           0                     0.99995000374968757  0.0099995000374968751  0                          0                                0                         
                       1.999173520625862e-23                          5                                           0.86110519147585829                 -3.8474017074747546e-11                -1.8254440176203139e-23                3.8219565918676531e-23          2.0141847416795373e-28             0.00045962670127711085                    0.00045962670127711085                      0.00045962670127711085             -1.8228032130892081e-23     0.0297962300743938   0                     0.0297962300743938    0                       1                             1                           0                     0.99995003853503883  0.0099960183394287357  6.8845788175151449e-06        4.7422243188932041e-13              4.7422243188932041e-13       
                       3.121929027435248e-24                          7                                           0.61643475104292977                 -3.8446050245148928e-11                -1.6869806178823373e-23                3.8201145530950651e-23          5.448847760173787e-28             0.00075298094510495121                    0.00075298094510495121                      0.00075298094510495121             -3.5079761388291424e-23     0.057356553610973318  0                     0.057356553610973318   0                       2                             2                           0                     0.99995006261517971  0.0099936045562070679  1.1542470120172348e-05        4.3864047593563867e-13              9.1286290782495903e-13       
                      -1.2277877776674891e-23                          9                                           0.39215887417944068                 -3.8428431981901646e-11                -1.5399806804110139e-23                3.8189580095954619e-23          8.1360392617419057e-28             0.00091425001031493068                    0.00091425001031493068                      0.00091425001031493068             -5.0468271476555684e-23     0.08252979613627548  0                     0.08252979613627548   0                       3                             3                           0                     0.99995007773415023  0.0099920876746814342  1.4371833860134433e-05        4.0065450418623818e-13              1.3135174120111972e-12       
                      -2.3574014394229316e-23                          13                                          0.22747390986216739                 -3.8420300978399652e-11                -1.1296136617554425e-23                3.8184319511619387e-23          9.2950818043130549e-28             0.0009704200564486094                    0.0009704200564486094                      0.0009704200564486094             -6.1759263414029133e-23     0.10100071541385851  0                     0.10100071541385851   0                       4                             4                           0                     0.99995008461107437  0.0099913974563831803  1.5588714464164992e-05        2.9398623080040324e-13              1.6075036428116006e-12       
                      -3.178131035267732e-23                          17                                          0.1241032742332364                  -3.8416930971976142e-11                -8.2072959584480039e-24                3.8182220936127834e-23          9.5987673789750975e-28             0.00097944748862162888                    0.00097944748862162888                      0.00097944748862162888             -6.9964491165543057e-23     0.11442264685758523  0                     0.11442264685758523   0                       5                             5                           0                     0.99995008735444713  0.0099911221367107259  1.6019212210347964e-05        2.1362908232842892e-13              1.8211327251400293e-12       
                      -3.9372612781738923e-23                          19                                          0.18759841274083872                 -3.8415710763912372e-11                -7.591302429061602e-24                3.8181577736335889e-23          9.4659219926370822e-28             0.00096470403861336558                    0.00097944748862162888                      0.00097944748862162888             -7.7555137110274069e-23     0.12683775404403902  0                     0.12683775404403902   0                       6                             6                           0                     0.9999500881952732   0.0099910378578247534  1.6078734152922971e-05        1.9760695852622319e-13              2.0187396836662527e-12       
                      -4.511056858757622e-23                          21                                          0.25712180230059772                 -3.8415995936911643e-11                -5.7379558058372985e-24                3.8181922949010219e-23          9.1155181503619803e-28             0.00093927191719910983                    0.00097944748862162888                      0.00097944748862162888             -8.3293403088401476e-23     0.13622179672974302  0                     0.13622179672974302   0                       7                             7                           0                     0.9999500877439923   0.0099910833002598877  1.5908520533194701e-05        1.4936460410348594e-13              2.1681042877697385e-12       
                      -5.2321107621562575e-23                          23                                          0.35086238444846179                 -3.8417825056146467e-11                -7.2105390339863564e-24                3.8183374884306228e-23          8.4035308419543717e-28             0.00089037145191850895                    0.00097944748862162888                      0.00097944748862162888             -9.0505322858953e-23     0.14801367052546474  0                     0.14801367052546474   0                       8                             8                           0                     0.99995008584594292  0.0099912740458639494  1.5432658376094366e-05        1.8769246667591302e-13              2.3557967544456518e-12       
                      -6.0906191204693827e-23                          25                                          0.46400936614765376                 -3.8422134242411094e-11                -8.5850835831312526e-24                3.8186588073892693e-23          7.2386053309452834e-28             0.00080854586379101379                    0.00097944748862162888                      0.00097944748862162888             -9.9093503139119614e-23     0.16205205795125796  0                     0.16205205795125796   0                       9                             9                           0                     0.99995008164548538  0.0099916959300888775  1.4487007676013286e-05        2.2345474904928451e-13              2.5792515034949362e-12       
                      -7.1154450289797156e-23                          27                                          0.59720811160019804                 -3.8430302762628597e-11                -1.0248259085103326e-23                3.8192545721806782e-23          5.5742543780048696e-28             0.00067960724415266926                    0.00097944748862162888                      0.00097944748862162888             -1.0934755343704173e-22     0.17880697595912123  0                     0.17880697595912123   0                       10                            10                          0                     0.9999500738573216   0.0099924777530598519  1.2821113354063179e-05        2.6670156960853281e-13              2.8459530731034689e-12       
                      -8.3256057398085126e-23                          29                                          0.74972864496213898                 -3.8444170375327162e-11                -1.2101607108287973e-23                3.8202568603135536e-23          3.6027453987899795e-28             0.00049094482732688354                    0.00097944748862162888                      0.00097944748862162888             -1.2145898627576054e-22     0.19858567445283151  0                     0.19858567445283151   0                       11                            11                          0                     0.9999500607548617   0.009993792171678775  1.0105729634647975e-05        3.1484387182509958e-13              3.1607969449285685e-12       
                      -9.7439814260215292e-23                          31                                          0.92082775838578734                 -3.8466214061587438e-11                -1.4183756862130169e-23                3.8218455883482096e-23          2.0385771138214833e-28             0.00035825046811435734                    0.00097944748862162888                      0.00097944748862162888             -1.3565847400140879e-22     0.22175567758103809  0                     0.22175567758103809   0                       12                            12                          0                     0.99995003998613774  0.0099958736399843318  5.8991939009835752e-06        3.6884360683172515e-13              3.5296405517602935e-12       
                      -1.1397762043852269e-22                          33                                          1.158586607737466                   -3.8499754934879964e-11                -1.6537806178307392e-23                3.8242652800064303e-23          2.6695928252378233e-28             0.00038611276048342019                    0.00097944748862162888                      0.00097944748862162888             -1.5222054019786951e-22     0.24875026953628607  0                     0.24875026953628607   0                       13                            13                          0                     0.99995000835460057  0.0099990393311333962 -3.8846703955256193e-07        4.2975134254768377e-13              3.9593918943079776e-12       
                      -1.3321709704178111e-22                          35                                          1.4535625763634894                  -3.8549305160465088e-11                -1.9239476603258419e-23                3.8278533047966402e-23          9.3668108753848591e-28             0.0009367262192238508                    0.00097944748862162888                      0.00097944748862162888             -1.7149656677083504e-22     0.28011883056098191  0                     0.28011883056098191   0                       14                            14                          0                     0.99994996144996973  0.010003724053722738 -9.5564032621878464e-06        4.9942100191696661e-13              4.4588128962249437e-12       
                      -1.561114419819834e-22                          37                                          1.7999106159137939                  -3.8622862457883892e-11                -2.2894344940202294e-23                3.8332129236537211e-23          3.0623845385157711e-27             0.0017657351933106817                    0.0017657351933106817                      0.0017657351933106817             -1.9444663360305913e-22     0.31738361084721911  0                     0.31738361084721911   0                       15                            15                          0                     0.99994989138608381  0.010010701455982955 -2.3027534401212757e-05        5.9335259247574934e-13              5.0521654887006935e-12       
                      -1.8367039634006479e-22                          39                                          2.2064599901964113                  -3.8732138444112487e-11                -2.7558954358081397e-23                3.8412461552118856e-23          8.4772884144597017e-27             0.002942646598214073                    0.002942646598214073                      0.002942646598214073             -2.2209133518059809e-22     0.36212969335955164  0                     0.36212969335955164   0                       16                            16                          0                     0.9999497863712522   0.010021115229843308 -4.2871963724073529e-05        7.125680121658339e-13              5.7647335008665276e-12       
                      -2.1722590838688992e-22                          41                                          2.6815114210077953                  -3.889517513337969e-11                -3.3555512046825107e-23                3.8533774187908983e-23          2.1116633844257544e-26             0.0046024866566755519                    0.0046024866566755519                      0.0046024866566755519             -2.5578079920864316e-22     0.4164123983937103   0                     0.4164123983937103    0                       17                            17                          0                     0.99994962778466434  0.010036744438428247 -7.2266642618018127e-05        8.6459246545635872e-13              6.629325966322886e-12       
                      -2.5756374236235467e-22                          43                                          3.2922065487090464                  -3.9133605722866273e-11                -4.0337833975464744e-23                3.8714058700397552e-23          4.8571013116714547e-26             0.0068865797878077516                    0.0068865797878077516                      0.0068865797878077516             -2.9632637207586892e-22     0.48131684062717178  0                     0.48131684062717178   0                       18                            18                          0                     0.99994939210672795  0.010059764744439492 -0.00011498490102485577        1.0340303133224857e-12              7.6633562796453708e-12       
                      -3.0409761611845859e-22                          45                                          3.9989937382271221                  -3.9464217729661721e-11                -4.6533873756103958e-23                3.8969226016401546e-23          1.0279822869479927e-25             0.0098644922693930121                    0.0098644922693930121                      0.0098644922693930121             -3.4316964036355494e-22     0.5556259379652696   0                     0.5556259379652696    0                       19                            19                          0                     0.99994905853772698  0.010091946184691015 -0.00017389495983529196        1.1842615594209492e-12              8.8476178390663204e-12       
                      -3.5989544897172948e-22                          47                                          4.8165943624153584                  -3.9935486266284042e-11                -5.5797832853270891e-23                3.9342609363536005e-23          2.1006249416239524e-25             0.013859229802856645                    0.013859229802856645                      0.013859229802856645             -3.9944812082942792e-22     0.6437929692655282   0                     0.6437929692655282    0                       20                            20                          0                     0.99994857042989793  0.010138243799646451 -0.0002574643258853125        1.4057566847049038e-12              1.0253374523771224e-11       
                      -4.2872009149117862e-22                          49                                          5.7892350474813199                  -4.0622172530117764e-11                -6.8824642519449108e-23                3.9905759676003214e-23          4.2483555138506053e-25             0.01933455984417207                    0.01933455984417207                      0.01933455984417207             -4.6905068671856689e-22     0.75092133074011713  0                     0.75092133074011713   0                       21                            21                          0                     0.99994783424747824  0.010206431211125898 -0.00037869564656355337        1.7091701124024558e-12              1.196254463617368e-11       
                      -5.1313488461443604e-22                          51                                          7.0178079857096005                  -4.1609754139797646e-11                -8.4414793123257425e-23                4.0753416386016663e-23          8.4677724861747872e-25             0.026736098144775112                    0.026736098144775112                      0.026736098144775112             -5.5473507824907015e-22     0.87953953606520607  0                     0.87953953606520607   0                       22                            22                          0                     0.9999467261408701   0.010305731911440189 -0.00055233116158775292        2.0538732094205926e-12              1.4016417845594273e-11       
                      -6.1696046021782568e-22                          53                                          8.435077524164651                   -4.3018267426532295e-11                -1.0382557560338966e-22                4.2036422218851746e-23          1.663805070292977e-24             0.036656293526267786                    0.036656293526267786                      0.036656293526267786             -6.606606875069704e-22     1.0330816513862615   0                     1.0330816513862615    0                       23                            23                          0                     0.99994504891783442  0.010449425036737488 -0.00079904722628010934        2.4549750850615076e-12              1.6471392930655781e-11       
                      -7.4892963062419325e-22                          55                                          10.171474605544077                  -4.5067523709341746e-11                -1.3196917040636753e-22                4.4054232256584201e-23          3.2759201458325415e-24             0.050217944091031683                    0.050217944091031683                      0.050217944091031683             -7.9625978302660997e-22     1.2202858887678845   0                     1.2202858887678845    0                       24                            24                          0                     0.99994241110807125  0.010662075902185156 -0.0011568264928486453        2.9985868036996107e-12              1.9469979734355392e-11       
                      -9.1671654411584552e-22                          57                                          12.26258091158785                   -4.7999359556870778e-11                -1.6778691349165238e-22                4.7247410720137241e-23          6.4035810106956907e-24             0.068451476617631457                    0.068451476617631457                      0.068451476617631457             -9.7036753584667852e-22     1.445036547020593    0                     1.445036547020593     0                       25                            25                          0                     0.99993823676654026  0.010972510503624824 -0.0016673551880375969        3.6092924750159552e-12              2.3079272209371345e-11       
# Table End
