# ODT 1.0
# Table Start
# Title: mmArchive Data Table, Wed Jun 16 18:50:54 EDT 2010
# Columns: {Oxs_RungeKuttaEvolve:evolve:Total energy} {Oxs_RungeKuttaEvolve:evolve:Energy calc count} {Oxs_RungeKuttaEvolve:evolve:Max dm/dt} Oxs_RungeKuttaEvolve:evolve:dE/dt {Oxs_RungeKuttaEvolve:evolve:Delta E} Oxs_UniaxialAnisotropy::Energy Oxs_UniformExchange::Energy {Oxs_UniformExchange::Max Spin Ang} {Oxs_UniformExchange::Stage Max Spin Ang} {Oxs_UniformExchange::Run Max Spin Ang} Oxs_ScriptUZeeman::Energy Oxs_ScriptUZeeman::B Oxs_ScriptUZeeman::Bx Oxs_ScriptUZeeman::By Oxs_ScriptUZeeman::Bz Oxs_TimeDriver::Iteration {Oxs_TimeDriver::Stage iteration} Oxs_TimeDriver::Stage Oxs_TimeDriver::mx   Oxs_TimeDriver::my   Oxs_TimeDriver::mz   {Oxs_TimeDriver::Last time step} {Oxs_TimeDriver::Simulation time}
# Units:                       J                                            {}                                        deg/ns                                 J/s                                  J                                 J                             J                              deg                                    deg                                      deg                               J                      mT                   mT                    mT                    mT                      {}                            {}                          {}                   {}                   {}                   {}                          s                                 s                
                       3.8246175382461758e-23                          1                                           1.1269719071161519                  -3.8514499387476994e-11                 0                                  3.8246175382461758e-23          0                               0                                      0                                        0                                0                       0                    0                     0                     0                       0                             0                           0                     0.99995000374968757  0.0099995000374968751  0                          0                                0                         
                      -1.3793323995146174e-22                          13                                          1.520272357722763                   -3.8563333162635953e-11                -1.761794153339235e-22                3.828856900923238e-23          1.4644496001599545e-27             0.0011650487844876588                    0.0011650487844876588                      0.0011650487844876588             -1.7622327341029428e-22     0.28780169386680976  0                     0.28780169386680976   0                       1                             1                           0                     0.99994994833040951  0.010005032330125084 -1.2132083449441937e-05        4.5811387941937884e-12              4.5811387941937884e-12       
                      -3.0850614088946288e-22                          19                                          4.0845191799596599                  -3.9498589101750989e-11                -1.7057290093800111e-22                3.8996194568365392e-23          1.0914173894183633e-25             0.010126818842770557                    0.010126818842770557                      0.010126818842770557             -3.4761147719677009e-22     0.56262945498522943  0                     0.56262945498522943   0                       2                             2                           0                     0.99994902328291901  0.010095323036607731 -0.00017990915714249163        4.3781181242098645e-12              8.9592569184036536e-12       
                      -5.174302123996645e-22                          25                                          7.1329638614472151                  -4.1664219782123672e-11                -2.0892407151020163e-22                4.0801539005562725e-23          8.713843010368652e-25             0.027120948057378594                    0.027120948057378594                      0.027120948057378594             -5.5910313570626409e-22     0.88598831987511861  0                     0.88598831987511861   0                       3                             3                           0                     0.99994666323211834  0.010311278317247822 -0.00056157150623362324        5.1601987688599505e-12              1.4119455687263604e-11       
                      -8.2063454239360404e-22                          31                                          11.281117968396327                  -4.6293543575592045e-11                -3.0320432999393949e-22                4.5333221484591272e-23          4.4589830466420313e-24             0.058149459416513657                    0.058149459416513657                      0.058149459416513657             -8.7042674692483736e-22     1.3181399887777183   0                     1.3181399887777183    0                       4                             4                           0                     0.99994073912803916  0.010789945972784033 -0.0013676660949694863        6.9206247771710526e-12              2.1040080464434656e-11       
                      -1.0347731090932044e-21                          43                                          14.201266922714456                  -5.0234464027200189e-11                -2.141385666996005e-22                4.9910226690157416e-23          9.3678833610805545e-24             0.081265682090343599                    0.081265682090343599                      0.081265682090343599             -1.0940512191444424e-21     1.5943363453879134   0                     1.5943363453879134    0                       5                             5                           0                     0.99993475573673241  0.011212598871814224 -0.0020529642883341404        4.4433192131035705e-12              2.5483399677538227e-11       
                      -1.2546588345725032e-21                          49                                          16.319296840156166                  -5.4621987822849693e-11                -2.1988572547929871e-22                5.5773549084378135e-23          1.6757733393284499e-23             0.1065796911281193                     0.1065796911281193                       0.1065796911281193              -1.3271901170501658e-21     1.8541816698575433   0                     1.8541816698575433    0                       6                             6                           0                     0.99992709072192154  0.01169578654359239 -0.0028155696693854095        4.1985820277924378e-12              2.9681981705330667e-11       
                      -1.5149065860045274e-21                          55                                          18.585936922979862                  -6.0064542163067771e-11                -2.6024775143202425e-22                6.416951798688932e-23          2.8578513630941139e-23             0.13599758816899632                    0.13599758816899632                      0.13599758816899632             -1.6076546176223578e-21     2.1339055076476492   0                     2.1339055076476492    0                       7                             7                           0                     0.99991611471180908  0.01231022939247994 -0.0037613385520506998        4.543355984922125e-12              3.4225337690252789e-11       
                      -1.8370730849745082e-21                          61                                          22.154840163301838                  -6.6958275948534057e-11                -3.2216649896998062e-22                7.6622651702862795e-23          4.7697910751154379e-23             0.17127654509429119                    0.17127654509429119                      0.17127654509429119             -1.9613936474285252e-21     2.4445461771348005   0                     2.4445461771348005    0                       8                             8                           0                     0.99989983454277154  0.013110374476631681 -0.0049602545515371388        5.0791223962747817e-12              3.9304460086527569e-11       
                      -2.2026739486250775e-21                          67                                          25.004885399216924                  -7.4833517799942624e-11                -3.6560086365056942e-22                9.3310359821955172e-23          7.5083111556337546e-23             0.21064483301513848                    0.21064483301513848                      0.21064483301513848             -2.3710674200033701e-21     2.7580022441530887   0                     2.7580022441530887    0                       9                             9                           0                     0.99987801798350417  0.014047461992293783 -0.0063262114666010165        5.1669509711078899e-12              4.447141105763546e-11       
                      -2.5671654124367732e-21                          73                                          27.976012900235105                  -8.2519875156630011e-11                -3.6449146381169568e-22                1.1241303475777789e-22          1.0760200627142069e-22             0.24851034531672067                    0.24851034531672067                      0.24851034531672067             -2.7871804534659717e-21     3.0372074237072022   0                     3.0372074237072022    0                       10                            10                          0                     0.99985304356807059  0.014994749425685003 -0.0076739511086420312        4.6430813124775708e-12              4.9114492370113028e-11       
                      -2.9142143222081509e-21                          79                                          29.866012191381358                  -8.9517443491970667e-11                -3.4704890977137776e-22                1.3269152160476886e-22          1.4274758611720769e-22             0.28131670579083889                    0.28131670579083889                      0.28131670579083889             -3.1896534299301275e-21     3.277983135917117    0                     3.277983135917117     0                       11                            11                          0                     0.99982653113564013  0.015899569319265502 -0.0089334025947282146        4.0388311021267754e-12              5.3153323472239807e-11       
                      -3.2848822472401714e-21                          85                                          31.598046199553291                  -9.6840879544396857e-11                -3.706679250320206e-22                1.5645077876934199e-22          1.8477589075679425e-22             0.31660734187965645                    0.31660734187965645                      0.31660734187965645             -3.6261089167663081e-21     3.5131849951204406   0                     3.5131849951204406    0                       12                            12                          0                     0.9997954668461283   0.016865079914974598 -0.010251227150496072        3.9799589018186964e-12              5.71332823740585e-11       
                      -3.7419547854909107e-21                          91                                          33.47763795217621                   -1.0558572922719938e-10                -4.570725382507394e-22                1.8850050664012369e-22          2.4211215708539702e-22             0.35736331286009526                    0.35736331286009526                      0.35736331286009526             -4.1725674492164315e-21     3.7775127289053376   0                     3.7775127289053376    0                       13                            13                          0                     0.99975356129683512  0.018048703361034136 -0.011834824397182491        4.5179973656167023e-12              6.1651279739675202e-11       
                      -4.3159975872024882e-21                          97                                          37.032378895052076                  -1.1612708443513638e-10                -5.7404280171157738e-22                2.3272013562026535e-22          3.2194593897665061e-22             0.40546254871685999                    0.40546254871685999                      0.40546254871685999             -4.8706636617994039e-21     4.07697180449982     0                     4.07697180449982      0                       14                            14                          0                     0.9996957399780585   0.019520862876191963 -0.013759898432216446        5.1827678683382639e-12              6.6834047608013468e-11       
                      -4.9444372353555988e-21                          103                                         41.221530784776796                  -1.2733724675434012e-10                -6.2843964815311057e-22                2.8580873857600399e-22          4.1871312611185613e-22             0.45673821691150379                    0.45673821691150379                      0.45673821691150379             -5.6489591000434589e-21     4.3718320816249436   0                     4.3718320816249436    0                       15                            15                          0                     0.99962631634650789  0.021113174418715606 -0.015792319420664974        5.1778867736412347e-12              7.2011934381654708e-11       
                      -5.5299650976615976e-21                          109                                         41.031327209044271                  -1.368862516428441e-10                -5.8552786230599891e-22                3.3924865426416931e-22          5.1551324821579844e-22             0.50154340337991354                    0.50154340337991354                      0.50154340337991354             -6.384727000141566e-21     4.6213016622153305   0                     4.6213016622153305    0                       16                            16                          0                     0.99955642740005457  0.022574939314276576 -0.017619503792179372        4.4454236217227641e-12              7.6457358003377469e-11       
                      -6.0712159574762268e-21                          115                                         43.336266166779701                  -1.4502399303709425e-10                -5.4125085981462927e-22                3.9183483602017909e-22          6.1039845710572676e-22             0.53979532393662877                    0.53979532393662877                      0.53979532393662877             -7.0734492506021327e-21     4.8340851027637139   0                     4.8340851027637139    0                       17                            17                          0                     0.99948764913806831  0.023909226599025245 -0.019255124060994031        3.8433499293709126e-12              8.0300707932748386e-11       
                      -6.6509792519582773e-21                          121                                         45.298104450243912                  -1.5358445130834299e-10                -5.7976329448205043e-22                4.5143903925542639e-22          7.1820204630494386e-22             0.58107796509984022                    0.58107796509984022                      0.58107796509984022             -7.8206203375186474e-21     5.0462518509365237   0                     5.0462518509365237    0                       18                            18                          0                     0.99940968484443149  0.025323332601409239 -0.020959349123141104        3.8839433904785393e-12              8.4184651323226915e-11       
                      -7.3803577795796439e-21                          127                                         47.792719042815605                  -1.6386216752088412e-10                -7.2937852762136705e-22                5.3094028164596486e-22          8.6158268086946143e-22             0.62964972380560369                    0.62964972380560369                      0.62964972380560369             -8.7728807420950705e-21     5.2934264231641057   0                     5.2934264231641057    0                       19                            19                          0                     0.99930568278111243  0.027080328143741738 -0.023037315766080074        4.5960447068990726e-12              8.8780696030125986e-11       
                      -8.2922457575721182e-21                          133                                         50.391406033985263                  -1.76061135483494e-10                -9.1188797799247348e-22                6.3704129243252297e-22          1.0523820820762172e-21             0.68753031293572275                    0.68753031293572275                      0.68753031293572275             -9.9816691320808583e-21     5.5766268297417376   0                     5.5766268297417376    0                       20                            20                          0                     0.99916686222035855  0.029246921804951396 -0.025543117359696083        5.3701659685921432e-12              9.4150861998718141e-11       
                      -9.2441151117802009e-21                          139                                         56.094760852471381                  -1.8885319703274172e-10                -9.5186935420808312e-22                7.5545737579980985e-22          1.2656552976879494e-21             0.74805656686359479                    0.74805656686359479                      0.74805656686359479             -1.1265227785267961e-20     5.847203299898494    0                     5.847203299898494     0                       21                            21                          0                     0.99901189997111972  0.031480408665742553 -0.028066270577773059        5.2470131822563241e-12              9.939787518097446e-11       
                      -1.0066513536623793e-20                          145                                         56.30088935308428                   -1.9768693852742736e-10                -8.2239842484359252e-22                8.6334900488474941e-22          1.4561016965967256e-21             0.79381502568470463                    0.79381502568470463                      0.79381502568470463             -1.2385964238105268e-20     6.0629249214294214   0                     6.0629249214294214    0                       22                            22                          0                     0.99887068347154373  0.033380759153889106 -0.030170724959940904        4.2740861997550579e-12              1.0367196138072951e-10       
                      -1.0798464076538587e-20                          151                                         56.971965375834202                  -2.0489366924299813e-10                -7.3195053991479254e-22                9.6375303898095352e-22          1.6327930642732948e-21             0.83536645842074075                    0.83536645842074075                      0.83536645842074075             -1.3395010179792835e-20     6.2431761959565995   0                     6.2431761959565995    0                       23                            23                          0                     0.99873924414627491  0.035057910987334497 -0.031993392798658579        3.6394832179955376e-12              1.0731144459872506e-10       
                      -1.1601840066639406e-20                          157                                         58.474580477870241                  -2.129534672528819e-10                -8.0337599010081981e-22                1.0787099064540942e-21          1.8347650481483497e-21             0.87934779401000163                    0.87934779401000163                      0.87934779401000163             -1.451531502124185e-20     6.4300902562281452   0                     6.4300902562281452    0                       24                            24                          0                     0.99858872600798143  0.036885695312062254 -0.033948955300420268        3.8456739156402482e-12              1.111571185143653e-10       
                      -1.2621843287351221e-20                          163                                         60.427130171082744                  -2.2260824308553189e-10                -1.0200032207118153e-21                1.2315117048406514e-21          2.1019304247381247e-21             0.93272619710150995                    0.93272619710150995                      0.93272619710150995             -1.5955285416929997e-20     6.652657535520091    0                     6.652657535520091     0                       25                            25                          0                     0.99838860979949529  0.039188441109802317 -0.03636606614660863        4.6837606807716323e-12              1.1584087919513694e-10       
# Table End
