# ODT 1.0
# Table Start
# Title: mmArchive Data Table, Wed Jun 16 18:50:55 EDT 2010
# Columns: {Oxs_RungeKuttaEvolve:evolve:Total energy} {Oxs_RungeKuttaEvolve:evolve:Energy calc count} {Oxs_RungeKuttaEvolve:evolve:Max dm/dt} Oxs_RungeKuttaEvolve:evolve:dE/dt {Oxs_RungeKuttaEvolve:evolve:Delta E} Oxs_UniaxialAnisotropy::Energy Oxs_UniformExchange::Energy {Oxs_UniformExchange::Max Spin Ang} {Oxs_UniformExchange::Stage Max Spin Ang} {Oxs_UniformExchange::Run Max Spin Ang} Oxs_ScriptUZeeman::Energy Oxs_ScriptUZeeman::B Oxs_ScriptUZeeman::Bx Oxs_ScriptUZeeman::By Oxs_ScriptUZeeman::Bz Oxs_TimeDriver::Iteration {Oxs_TimeDriver::Stage iteration} Oxs_TimeDriver::Stage Oxs_TimeDriver::mx   Oxs_TimeDriver::my   Oxs_TimeDriver::mz   {Oxs_TimeDriver::Last time step} {Oxs_TimeDriver::Simulation time}
# Units:                       J                                            {}                                        deg/ns                                 J/s                                  J                                 J                             J                              deg                                    deg                                      deg                               J                      mT                   mT                    mT                    mT                      {}                            {}                          {}                   {}                   {}                   {}                          s                                 s                
                       3.8246175382461758e-23                          1                                           1.1269719071161519                  -3.8514499387476994e-11                 0                                  3.8246175382461758e-23          0                               0                                      0                                        0                                0                       0                    0                     0                     0                       0                             0                           0                     0.99995000374968757  0.0099995000374968751  0                          0                                0                         
                      -1.4589391588485638e-22                          13                                          1.6044714251625551                  -3.8588350944034941e-11                -1.8414009126731814e-22                3.8306490407805692e-23          2.1856525675864092e-27             0.0014562270192854969                    0.0014562270192854969                      0.0014562270192854969             -1.8420259194522964e-22     0.30076307199686547  0                     0.30076307199686547   0                       1                             1                           0                     0.99994992490257173  0.010007366441736011 -1.6718104842933199e-05        4.7875149309635833e-12              4.7875149309635833e-12       
                      -3.1818054781700174e-22                          19                                          4.2076396604637321                  -3.9575763500022206e-11                -1.7228663193214536e-22                3.9056781782132158e-23          1.2521058312213792e-25             0.010799202995181353                    0.010799202995181353                      0.010799202995181353             -3.5736254018225606e-22     0.57797901616405201  0                     0.57797901616405201   0                       2                             2                           0                     0.99994894407990087  0.010102887871733952 -0.00019358938142878995        4.4164361194830005e-12              9.203951050446583e-12       
                      -5.1357423286578702e-22                          25                                          7.0821430114684096                  -4.1615647248347242e-11                -1.953936850487853e-22                4.0758577875896954e-23          8.4732218494712409e-25             0.026796534446918274                    0.026796534446918274                      0.026796534446918274             -5.5518013292663117e-22     0.8801929182134024   0                     0.8801929182134024    0                       3                             3                           0                     0.99994671939346402  0.010306343770486186 -0.00055305206047762774        4.8229061825428919e-12              1.4026857232989476e-11       
                      -7.815767040827398e-22                          31                                          10.989485645885461                  -4.5617037660487294e-11                -2.6800247121695278e-22                4.4619719527586087e-23          3.7719298167369794e-24             0.053405402047068166                    0.053405402047068166                      0.053405402047068166             -8.2996835342706288e-22     1.2651614301470397   0                     1.2651614301470397    0                       4                             4                           0                     0.99994167186575289  0.010719244263419279 -0.0012510155254083827        6.1629193235351816e-12              2.0189776556524657e-11       
                      -1.020120662366425e-21                          43                                          13.632292157477311                  -4.9960516315898539e-11                -2.3854395828368523e-22                4.9562959831039872e-23          8.9906718357470366e-24             0.079916071702590921                    0.079916071702590921                      0.079916071702590921             -1.0786742940332121e-21     1.5762000905924212   0                     1.5762000905924212    0                       5                             5                           0                     0.99993520971041228  0.011182207808846411 -0.0020038855585946319        5.0012788275996715e-12              2.5191055384124331e-11       
                      -1.2616515578355543e-21                          49                                          16.419255798752111                  -5.479027130888055e-11                -2.415308954691292e-22                5.5979413544914675e-23          1.706058056149915e-23             0.10764051029109735                    0.10764051029109735                      0.10764051029109735             -1.3346915519419681e-21     1.8621138127956043   0                     1.8621138127956043    0                       6                             6                           0                     0.99992682159786672  0.011711789762466944 -0.0028408322025776428        4.6194078332952224e-12              2.9810463217419552e-11       
                      -1.5047713033591697e-21                          55                                          19.023632296741216                  -5.9865968497092336e-11                -2.431197455236153e-22                6.3814291122030722e-23          2.8072018547156776e-23             0.13438240953985009                    0.13438240953985009                      0.13438240953985009             -1.596657613028357e-21     2.1235498887862687   0                     2.1235498887862687    0                       7                             7                           0                     0.99991657910085552  0.012285643403641133 -0.0037238590140054352        4.2461934905472293e-12              3.4056656707966779e-11       
                      -1.7677394990900265e-21                          61                                          21.408124534137489                  -6.54710824332809e-11                -2.6296819573085703e-22                7.3759736880872285e-23          4.3205823706568841e-23             0.16432851518907818                    0.16432851518907818                      0.16432851518907818             -1.8847050596774676e-21     2.3806767995372415   0                     2.3806767995372415    0                       8                             8                           0                     0.99990357730074209  0.012935747647241104 -0.0047011810697150528        4.2003468636435669e-12              3.8257003571610348e-11       
                      -2.0737305276338477e-21                          67                                          24.001521812735803                  -7.2017794589426034e-11                -3.0599102854382106e-22                8.7125175145832385e-23          6.468691985103048e-23             0.19678425235941283                    0.19678425235941283                      0.19678425235941283             -2.2255426226307107e-21     2.6516037101644487   0                     2.6516037101644487    0                       9                             9                           0                     0.9998861042044439   0.013714370436948222 -0.0058452473068444036        4.4554472186911197e-12              4.2712450790301469e-11       
                      -2.4337186107931869e-21                          73                                          26.302489062977866                  -7.9647870855813278e-11                -3.5998808315933919e-22                1.0514081381242708e-22          9.5001151193178849e-23             0.23441982561364311                    0.23441982561364311                      0.23441982561364311             -2.6338605757987929e-21     2.9383119535971822   0                     2.9383119535971822    0                       10                            10                          0                     0.99986255119352729  0.014646823820175006 -0.0071823644062938641        4.7527268866844636e-12              4.7465177676985932e-11       
                      -2.8337406743097519e-21                          79                                          29.000662875792919                  -8.796415722922594e-11                -4.0002206351656504e-22                1.2782041788827792e-22          1.3433027371827968e-22             0.27448458001691911                    0.27448458001691911                      0.27448458001691911             -3.0958913659163094e-21     3.2241176392202457   0                     3.2241176392202457    0                       11                            11                          0                     0.9998328997724979   0.01569001689393227 -0.0086440565403446221        4.7816029175563824e-12              5.2246780594542311e-11       
                      -3.2437275366399455e-21                          85                                          32.116674604006619                  -9.617393591698807e-11                -4.0998686233019339e-22                1.5372175011826111e-22          1.8005930411733645e-22             0.31189463576808607                    0.31189463576808607                      0.31189463576808607             -3.5775085908755426e-21     3.4881799707688459   0                     3.4881799707688459    0                       12                            12                          0                     0.99979903499984291  0.016758316146698128 -0.010106833483812869        4.4616515496999986e-12              5.6708432144242311e-11       
                      -3.6557881018542714e-21                          91                                          34.419417333811822                  -1.0404444469188652e-10                -4.1206056521432634e-22                1.8224627186770114e-22          2.3103045243664498e-22             0.35037677323621591                    0.35037677323621591                      0.35037677323621591             -4.0690648261586181e-21     3.7296715742470812   0                     3.7296715742470812    0                       13                            13                          0                     0.99976173897552234  0.017826767325741028 -0.011540196672599238        4.1213633018081292e-12              6.082979544605044e-11       
                      -4.097241533654008e-21                          97                                          36.043099286562004                  -1.1217487279517615e-10                -4.4145343179973628e-22                2.1537117797372926e-22          2.9055512749488589e-22             0.38739481711191903                    0.38739481711191903                      0.38739481711191903             -4.6031678391226228e-21     3.9666504683360624   0                     3.9666504683360624    0                       14                            14                          0                     0.99971842584537129  0.018961882669114753 -0.013034491510883206        4.0864803936919703e-12              6.4916275839742406e-11       
                      -4.6046119747019359e-21                          103                                         37.909699751840826                  -1.2117104905279233e-10                -5.0737044104792761e-22                2.5650226041853484e-22          3.6503607875909308e-22             0.42959353861009075                    0.42959353861009075                      0.42959353861009075             -5.2261503138795634e-21     4.2161165857396758   0                     4.2161165857396758    0                       15                            15                          0                     0.99966464096215335  0.020254329128544874 -0.014702109295063426        4.3514467005218998e-12              6.9267722540264306e-11       
                      -5.1920365460092812e-21                          109                                         39.83570653835158                   -1.3113999506155442e-10                -5.8742457130734578e-22                3.0791062006296271e-22          4.5828653703949863e-22             0.47560315168782119                    0.47560315168782119                      0.47560315168782119             -5.9582337031117425e-21     4.4798100514280943   0                     4.4798100514280943    0                       16                            16                          0                     0.99959741213338937  0.021732341045069801 -0.016571266964720648        4.6606689644607561e-12              7.3928391504725065e-11       
                      -5.8333792788264093e-21                          115                                         42.779003222269473                  -1.4152914940923214e-10                -6.4134273281712765e-22                3.6836221665822736e-22          5.6807502784833737e-22             0.52231799853040861                    0.52231799853040861                      0.52231799853040861             -6.7698165233329739e-21     4.7425051834372161   0                     4.7425051834372161    0                       17                            17                          0                     0.99951835004875966  0.02332478569222186 -0.018541917609837789        4.7120600647971747e-12              7.8640451569522248e-11       
                      -6.4817595943658733e-21                          121                                         46.023408702986245                  -1.5139479009337465e-10                -6.4838031553946432e-22                4.3374647280717783e-22          6.8666563856288626e-22             0.57019296561324062                    0.57019296561324062                      0.57019296561324062             -7.6021717057359379e-21     4.9860079197287135   0                     4.9860079197287135    0                       18                            18                          0                     0.99943282810073597  0.024913416489428377 -0.020468194738866349        4.4358601997869228e-12              8.3076311769309165e-11       
                      -7.125981331037633e-21                          127                                         47.66758879052734                   -1.605151341786469e-10                -6.4422173667175915e-22                5.0268314914886997e-22          8.1083571144568594e-22             0.61229651958543874                    0.61229651958543874                      0.61229651958543874             -8.439500191632189e-21     5.2095846084109878   0                     5.2095846084109878    0                       19                            19                          0                     0.99934264978806453  0.026470503944976232 -0.022321113919861909        4.1363691713245877e-12              8.7212680940633756e-11       
                      -7.8022727237873652e-21                          133                                         49.395628957933397                  -1.6961990580427068e-10                -6.7629139274973254e-22                5.7913616679373002e-22          9.4846887834659995e-22             0.65749431998546215                    0.65749431998546215                      0.65749431998546215             -9.3298777689276946e-21     5.4277283602445383   0                     5.4277283602445383    0                       20                            20                          0                     0.9992426272120235   0.02808706940255664 -0.024208792563602147        4.1000914101631346e-12              9.1312772350796884e-11       
                      -8.5554365940053903e-21                          139                                         51.35939813815564                   -1.7927251863338945e-10                -7.5316387021802473e-22                6.6896095087174947e-22          1.1093554812797448e-21             0.70442078556880239                    0.70442078556880239                      0.70442078556880239             -1.0333753026156884e-20     5.6536712917776457   0                     5.6536712917776457    0                       21                            21                          0                     0.99912509436908814  0.029865933995063123 -0.026248974817359983        4.3199757002049193e-12              9.5632748051001805e-11       
                      -9.4030286112979418e-21                          145                                         53.466495910386712                  -1.8955946853078e-10                -8.4759201729255226e-22                7.7569745686776933e-22          1.2998575226342259e-21             0.75502351901191089                    0.75502351901191089                      0.75502351901191089             -1.1478583590799938e-20     5.8896788181704816   0                     5.8896788181704816    0                       22                            22                          0                     0.99898541021630938  0.031845294318356268 -0.028473641106658523        4.6000300752474411e-12              1.0023277812624924e-10       
                      -1.0311247173344999e-20                          151                                         55.975662877792864                  -1.9997838653923351e-10                -9.082185620470575e-22                8.9643790923257895e-22          1.5143669682501592e-21             0.8091740861518526                     0.8091740861518526                       0.8091740861518526              -1.2722052050827737e-20     6.1242870907313582   0                     6.1242870907313582    0                       23                            23                          0                     0.99882736913306192  0.033942998493945643 -0.030784539610132385        4.6708951512763315e-12              1.0490367327752557e-10       
                      -1.1220329413565351e-20                          157                                         58.721574337215841                  -2.0961206512879849e-10                -9.0908224022035168e-22                1.0236010215601653e-21          1.7384638289999931e-21             0.85738404580560035                    0.85738404580560035                      0.85738404580560035             -1.3982394264125511e-20     6.3428311838959823   0                     6.3428311838959823    0                       24                            24                          0                     0.9986608862009283   0.036020270426229503 -0.033027633536125443        4.4486460429907382e-12              1.0935231932051632e-10       
                      -1.211007846459228e-20                          163                                         59.988654642512103                  -2.1816029835585796e-10                -8.8974905102692905e-22                1.1539695090637226e-21          1.9671248213984705e-21             0.90705729163195592                    0.90705729163195592                      0.90705729163195592             -1.5231172795054473e-20     6.5430181771547167   0                     6.5430181771547167    0                       25                            25                          0                     0.99849016919594646  0.038036784512867697 -0.035162923780176721        4.166378612783571e-12              1.1351869793329989e-10       
# Table End
