# ODT 1.0
# Table Start
# Title: mmArchive Data Table, Wed Jun 16 18:50:53 EDT 2010
# Columns: {Oxs_RungeKuttaEvolve:evolve:Total energy} {Oxs_RungeKuttaEvolve:evolve:Energy calc count} {Oxs_RungeKuttaEvolve:evolve:Max dm/dt} Oxs_RungeKuttaEvolve:evolve:dE/dt {Oxs_RungeKuttaEvolve:evolve:Delta E} Oxs_UniaxialAnisotropy::Energy Oxs_UniformExchange::Energy {Oxs_UniformExchange::Max Spin Ang} {Oxs_UniformExchange::Stage Max Spin Ang} {Oxs_UniformExchange::Run Max Spin Ang} Oxs_ScriptUZeeman::Energy Oxs_ScriptUZeeman::B Oxs_ScriptUZeeman::Bx Oxs_ScriptUZeeman::By Oxs_ScriptUZeeman::Bz Oxs_TimeDriver::Iteration {Oxs_TimeDriver::Stage iteration} Oxs_TimeDriver::Stage Oxs_TimeDriver::mx   Oxs_TimeDriver::my   Oxs_TimeDriver::mz   {Oxs_TimeDriver::Last time step} {Oxs_TimeDriver::Simulation time}
# Units:                       J                                            {}                                        deg/ns                                 J/s                                  J                                 J                             J                              deg                                    deg                                      deg                               J                      mT                   mT                    mT                    mT                      {}                            {}                          {}                   {}                   {}                   {}                          s                                 s                
                       3.8246175382461758e-23                          1                                           1.1269719071161519                  -3.8514499387476994e-11                 0                                  3.8246175382461758e-23          0                               0                                      0                                        0                                0                       0                    0                     0                     0                       0                             0                           0                     0.99995000374968757  0.0099995000374968751  0                          0                                0                         
                      -4.4218052378808794e-23                          33                                          0.24632706878649471                 -3.8415902033061589e-11                -8.2464227761270558e-23                3.8181858570449953e-23          9.205829905029959e-28             0.00094749283688035882                    0.00094749283688035882                      0.00094749283688035882             -8.2400831532249252e-23     0.13476215945086581  0                     0.13476215945086581   0                       1                             1                           0                     0.99995008782815142  0.0099910748044767638  1.5955280271910493e-05        2.1448713062815521e-12              2.1448713062815521e-12       
                      -1.0420703406519276e-22                          55                                          1.0064220727007196                  -3.8478935263562709e-11                -5.9988981686383958e-23                3.822764497647982e-23          1.8107488787398976e-28             0.00034528515554898772                    0.00094749283688035882                      0.00094749283688035882             -1.4243486011656045e-22     0.23280476060244026  0                     0.23280476060244026   0                       2                             2                           0                     0.99995002797365118  0.0099970764744930184  3.5162168151680408e-06        1.5606663092154838e-12              3.7055376154970359e-12       
                      -1.5960840596873868e-22                          66                                          1.8499299277138437                  -3.8635497537507145e-11                -5.5401371903545921e-23                3.8341396088836427e-23          3.5156065508569595e-27             0.0018962255650229727                    0.0018962255650229727                      0.0018962255650229727             -1.9795331766412596e-22     0.32306850392350284  0                     0.32306850392350284   0                       3                             3                           0                     0.99994987927194423  0.010011905509510841 -2.5309679879669633e-05        1.4371521836897434e-12              5.1426897991867793e-12       
                      -2.4876297910545821e-22                          77                                          3.1532557509746275                  -3.9077742646980684e-11                -8.9154573136719557e-23                3.8671562327700351e-23          4.1010190504006361e-26             0.0063496880239543819                    0.0063496880239543819                      0.0063496880239543819             -2.8747555162366258e-22     0.46719160430520573  0                     0.46719160430520573   0                       4                             4                           0                     0.99994944766035398  0.010054360762781425 -0.00010494653210504413        2.2956030978437916e-12              7.4382928970305709e-12       
                      -3.69098663760909e-22                          88                                          4.9422444059784256                  -4.0020825752901854e-11                -1.2033568465545078e-22                3.9411452783734815e-23          2.3219795238759758e-25             0.01453874854930769                    0.01453874854930769                      0.01453874854930769             -4.087423144970314e-22     0.65822435099934773  0                     0.65822435099934773   0                       5                             5                           0                     0.99994848043385776  0.010146686275543462 -0.00027243290587055031        3.0452524849264985e-12              1.0483545381957068e-11       
                      -5.4043416824618462e-22                          99                                          7.3916744027280386                  -4.1960729498852669e-11                -1.7133550448527564e-22                4.1065149697633083e-23          1.0237512064796178e-24             0.029229712455043067                    0.029229712455043067                      0.029229712455043067             -5.8252306915029738e-22     0.9204160545993384   0                     0.9204160545993384    0                       6                             6                           0                     0.99994631862445693  0.010341356776151431 -0.00061355865287511524        4.1860937236314451e-12              1.4669639105588514e-11       
                      -7.9027669995082552e-22                          110                                         10.694365175239707                  -4.5760075604997234e-11                -2.4984253170464085e-22                4.4775822780682771e-23          3.9160261068766738e-24             0.054563201001220855                    0.054563201001220855                      0.054563201001220855             -8.3896854883838496e-22     1.2770203358178684   0                     1.2770203358178684    0                       7                             7                           0                     0.99994146779717685  0.010734861485309201 -0.001276673518011779        5.7104212491252393e-12              2.0380060354713753e-11       
                      -1.1809858854370417e-21                          121                                         15.236226314983305                  -5.3118402195784579e-11                -3.9070918548621631e-22                5.3680163296350223e-23          1.4005486856872088e-23             0.098116655350055718                    0.098116655350055718                      0.098116655350055718             -1.2486715355902641e-21     1.7696581458117138   0                     1.7696581458117138    0                       8                             8                           0                     0.99992982737449487  0.011529418670377716 -0.0025551764832684684        7.9340416253532478e-12              2.8314101980067002e-11       
                      -1.8408145226866588e-21                          132                                         21.434486557852832                  -6.7021074724745142e-11                -6.5982863724961686e-22                7.6779829841287848e-23          4.7937922178391553e-23             0.17201753082083723                    0.17201753082083723                      0.17201753082083723             -1.9655322747063381e-21     2.4479277570421747   0                     2.4479277570421747    0                       9                             9                           0                     0.99989962905961471  0.013119888993449876 -0.0049742160937308018        1.1045863997351218e-11              3.9359965977418221e-11       
                      -2.2515915008257215e-21                          153                                         24.592988268339138                  -7.5774563460023577e-11                -4.1077697813906278e-22                9.5727404350267705e-23          7.8982346679602948e-23             0.21567717541961756                    0.21567717541961756                      0.21567717541961756             -2.426301251855592e-21     2.7971353574380311   0                     2.7971353574380311    0                       10                            10                          0                     0.99987485803217802  0.014173588412993474 -0.0065078503037976215        5.7597795117612837e-12              4.5119745489179502e-11       
                      -2.6607361450815275e-21                          164                                         27.378138382839371                  -8.4311207801519088e-11                -4.0914464425580593e-22                1.17676211587117e-22          1.1649692499707083e-22             0.25709912809604502                    0.25709912809604502                      0.25709912809604502             -2.8949092816657151e-21     3.1042053055110741   0                     3.1042053055110741    0                       11                            11                          0                     0.99984616248099267  0.015238180013069723 -0.0080151606785620697        5.1151862726567452e-12              5.0234931761836246e-11       
                      -3.2276969476446717e-21                          175                                         30.692953785721834                  -9.5708923757513255e-11                -5.6696080256314434e-22                1.5264871402626206e-22          1.7798382685511907e-22             0.31118662924834567                    0.31118662924834567                      0.31118662924834567             -3.5583294885260528e-21     3.4782062220151269   0                     3.4782062220151269    0                       12                            12                          0                     0.9998004379712867   0.016716271258844648 -0.010049817191593877        6.3041583448761783e-12              5.6539090106712429e-11       
                      -4.1178572685099131e-21                          186                                         35.078330502612829                  -1.1249638560583729e-10                -8.9016032086524124e-22                2.1697585515053219e-22          2.9341710901423297e-22             0.38949655481942591                    0.38949655481942591                      0.38949655481942591             -4.6282502326746782e-21     3.9771986855317309   0                     3.9771986855317309    0                       13                            13                          0                     0.99971632756168483  0.019014640650712965 -0.013103047651448981        8.5601144033542292e-12              6.5099204510066662e-11       
                      -4.9040478159162492e-21                          207                                         38.447738848887205                  -1.2623624511477665e-10                -7.8619054740633608e-22                2.8220755039372046e-22          4.1153436015437999e-22             0.4531337358165462                     0.4531337358165462                       0.4531337358165462              -5.5977897264643497e-21     4.3535385177218329   0                     4.3535385177218329    0                       14                            14                          0                     0.99963102578038032  0.021009841080049118 -0.015662482182922061        6.5891625762471618e-12              7.1688367086313823e-11       
                      -5.6378643651956952e-21                          218                                         41.413902738182571                  -1.3821994777024302e-10                -7.3381654927944594e-22                3.4944879925320625e-22          5.3349677340112261e-22             0.50881116709683072                    0.50881116709683072                      0.50881116709683072             -6.5208099378500238e-21     4.6648039703624526   0                     4.6648039703624526    0                       15                            15                          0                     0.99954308693092231  0.022841084570320032 -0.017947731456674904        5.5507244323034823e-12              7.7239091518617307e-11       
                      -6.4431776069009859e-21                          229                                         44.474355915049514                  -1.5052479533932448e-10                -8.0531324170529111e-22                4.2969521991197428e-22          6.7884556602697105e-22             0.56646509725844574                    0.56646509725844574                      0.56646509725844574             -7.5517183928399314e-21     4.9719206631109323   0                     4.9719206631109323    0                       16                            16                          0                     0.99943812736078719  0.024818193963108342 -0.020354000245928927        5.5786913468479167e-12              8.2817782865465223e-11       
                      -7.5466710123343995e-21                          240                                         48.186869612652387                  -1.660967165362991e-10                -1.1034934054334133e-21                5.4974134662905068e-22          8.9541553330280926e-22             0.64065133982315403                    0.64065133982315403                      0.64065133982315403             -8.9918278922662591e-21     5.3470513086570834   0                     5.3470513086570834    0                       17                            17                          0                     0.99928108559443951  0.0274778160664765  -0.023501453260366293        6.9708735954440796e-12              8.9788656460909297e-11       
                      -9.1163452061513931e-21                          251                                         52.720499813268965                  -1.8599679665354081e-10                -1.5696741938169945e-21                7.3891635615937294e-22          1.2341338834004134e-21             0.73848951662685081                    0.73848951662685081                      0.73848951662685081             -1.108939544571118e-20     5.8117790440462205   0                     5.8117790440462205    0                       18                            18                          0                     0.99903354780385067  0.031177935467861826 -0.027728645606035326        8.9153237445258627e-12              9.8703980205435154e-11       
                      -1.0014656460625958e-20                          272                                         54.970761034267845                  -1.9633205362440468e-10                -8.9831125447456494e-22                8.5624046639122397e-22          1.442590132355213e-21             0.79108206102247514                    0.79108206102247514                      0.79108206102247514             -1.2313487059372396e-20     6.0494676606183626   0                     6.0494676606183626    0                       19                            19                          0                     0.9988799884462376   0.033259251926214463 -0.030036599328292595        4.6988289574782135e-12              1.0340280916291338e-10       
                      -1.0810747913385704e-20                          283                                         56.818620187835592                  -2.0491094000378773e-10                -7.9609145275974415e-22                9.6545215932445248e-22          1.6355931018937397e-21             0.83602158814961269                    0.83602158814961269                      0.83602158814961269             -1.3411793174603895e-20     6.2460828284966174   0                     6.2460828284966174    0                       20                            20                          0                     0.99873701962549044  0.035085501315741625 -0.032023467296316895        3.9678636952700517e-12              1.0737067285818342e-10       
                      -1.1911386742782613e-20                          294                                         59.145391884911973                  -2.1593685542598934e-10                -1.1006388293969097e-21                1.1242775750259828e-21          1.9145904875204107e-21             0.89578908259403311                    0.89578908259403311                      0.89578908259403311             -1.4950254805329007e-20     6.4992812130000743   0                     6.4992812130000743    0                       21                            21                          0                     0.99852905402494041  0.037586496295740339 -0.034689792977890668        5.2298347724911096e-12              1.1260050763067453e-10       
                      -1.3523730191516056e-20                          305                                         62.162922083016589                  -2.3047489479747886e-10                -1.6123434487334444e-21                1.3728293748966487e-21          2.3476053261653952e-21             0.97915842532120956                    0.97915842532120956                      0.97915842532120956             -1.7244164892578099e-20     6.8372986269081339   0                     6.8372986269081339    0                       22                            22                          0                     0.99820348661573455  0.041210339869701053 -0.038448073658583007        7.2211583111242942e-12              1.1982166594179882e-10       
                      -1.5839106983726729e-20                          316                                         65.837914172536799                  -2.4830568935335334e-10                -2.3153767922106719e-21                1.7617635657826296e-21          3.0177416854384801e-21             1.091766760895907                      1.091766760895907                        1.091766760895907               -2.0618612234947838e-20     7.2675668554562636   0                     7.2675668554562636    0                       23                            23                          0                     0.99769375453737363  0.046357389670613092 -0.04358795735882566        9.6649457343178583e-12              1.294866116761167e-10       
                      -1.6803024131189704e-20                          337                                         67.153846523706747                  -2.5474670781782827e-10                -9.6391714746297615e-22                1.9346151670214363e-21          3.3131045584598187e-21             1.1366771894896708                     1.1366771894896708                       1.1366771894896708              -2.2050743856670961e-20     7.4308201516828492   0                     7.4308201516828492    0                       24                            24                          0                     0.99746710504474967  0.048488089445446747 -0.045651824122317164        3.8317827946586416e-12              1.3331839447077532e-10       
                      -1.7619977602297075e-20                          348                                         68.213968795631843                  -2.5977834784955907e-10                -8.169534711073687e-22                2.0861206426625696e-21          3.5709326676055339e-21             1.1739448532164376                     1.1739448532164376                       1.1739448532164376              -2.3277030912565176e-20     7.5628432421203602   0                     7.5628432421203602    0                       25                            25                          0                     0.9972683879899491   0.050291091615372534 -0.047370236910559818        3.1752668410517837e-12              1.3649366131182711e-10       
# Table End
