# ODT 1.0
# Table Start
# Title: mmArchive Data Table, Wed Jun 16 18:50:51 EDT 2010
# Columns: {Oxs_EulerEvolve:evolve:Total energy} {Oxs_EulerEvolve:evolve:Energy calc count} {Oxs_EulerEvolve:evolve:Max dm/dt} Oxs_EulerEvolve:evolve:dE/dt {Oxs_EulerEvolve:evolve:Delta E} Oxs_UniaxialAnisotropy::Energy Oxs_UniformExchange::Energy {Oxs_UniformExchange::Max Spin Ang} {Oxs_UniformExchange::Stage Max Spin Ang} {Oxs_UniformExchange::Run Max Spin Ang} Oxs_ScriptUZeeman::Energy Oxs_ScriptUZeeman::B Oxs_ScriptUZeeman::Bx Oxs_ScriptUZeeman::By Oxs_ScriptUZeeman::Bz Oxs_TimeDriver::Iteration {Oxs_TimeDriver::Stage iteration} Oxs_TimeDriver::Stage Oxs_TimeDriver::mx   Oxs_TimeDriver::my   Oxs_TimeDriver::mz   {Oxs_TimeDriver::Last time step} {Oxs_TimeDriver::Simulation time}
# Units:                     J                                       {}                                   deg/ns                           J/s                             J                               J                             J                              deg                                    deg                                      deg                               J                      mT                   mT                    mT                    mT                      {}                            {}                          {}                   {}                   {}                   {}                          s                                 s                
                    3.8246175382461758e-23                      1                                      1.1269719071161519             -3.8514499387476994e-11            0                               3.8246175382461758e-23          0                               0                                      0                                        0                                0                       0                    0                     0                     0                       0                             0                           0                     0.99995000374968757  0.0099995000374968751  0                          0                                0                         
                    1.6896918413012154e-23                      6                                      0.81224857818939855            -3.8465863069048527e-11           -2.1349256969449604e-23             3.8211097652551641e-23          3.712524803319193e-28             0.00062500000041285444                    0.00062500000041285444                      0.00062500000041285444             -2.1314550492019818e-23     0.034845437097531705  0                     0.034845437097531705   0                       1                             1                           0                     0.99995004960522071  0.0099949088843119607  9.1827643537552698e-06        5.5458347812709414e-13              5.5458347812709414e-13       
                    1.3217004404107311e-24                      8                                      0.58896117180363616            -3.8439950623673776e-11           -1.5575217972601424e-23             3.8192292907484446e-23          8.2807123147451542e-28             0.00093198679522404914                    0.00093198679522404914                      0.00093198679522404914             -3.6871420538305193e-23     0.060292981211513594  0                     0.060292981211513594   0                       2                             2                           0                     0.99995007418781434  0.0099924432279909128  1.3956183846706874e-05        4.0501493524533055e-13              9.5959841337242469e-13       
                   -1.0352343788688145e-23                      10                                     0.42182513221343776            -3.8425819445562084e-11           -1.1674044229098875e-23             3.8181994376997116e-23          1.122586966371255e-27             0.0010815207107841552                    0.0010815207107841552                      0.0010815207107841552             -4.8535460752651636e-23     0.079377019570256668  0                     0.079377019570256668   0                       3                             3                           0                     0.99995008765061766  0.0099910917352057198  1.6486282795028789e-05        3.0373935665940105e-13              1.2633377700318257e-12       
                   -1.8972739866897705e-23                      12                                     0.29798131341015804            -3.8418303393320308e-11           -8.6203960782095616e-24             3.8176521164674361e-23          1.2758334571338904e-27             0.0011485179114722895                    0.0011485179114722895                      0.0011485179114722895             -5.7150536865029205e-23     0.09347321484569987  0                     0.09347321484569987   0                       4                             4                           0                     0.99995009480550068  0.0099903732128789977  1.7777726267497652e-05        2.2435631334800324e-13              1.487694083379829e-12       
                   -2.521794283266471e-23                      14                                     0.20844329025411285            -3.8414411316448037e-11           -6.2452029657670055e-24             3.8173707146284768e-23          1.3440693205223955e-27             0.001174479644373628                    0.001174479644373628                      0.001174479644373628             -6.3392994048269999e-23     0.10368697157588883  0                     0.10368697157588883   0                       5                             5                           0                     0.99995009848413963  0.0099900037617041745  1.8406172179446102e-05        1.6256489343173995e-13              1.6502589768115691e-12       
                   -2.9672764479955937e-23                      16                                     0.16330430104571653            -3.8412433851755349e-11           -4.454821647291229e-24             3.8172298515394254e-23          1.3691335853616713e-27             0.0011816245157874588                    0.0011816245157874588                      0.0011816245157874588             -6.7846432128935553e-23     0.11097316670825537  0                     0.11097316670825537   0                       6                             6                           0                     0.99995010032557907  0.0099898188459073677  1.8696312508781797e-05        1.1597007965152792e-13              1.7662290564630968e-12       
                   -3.3213872359538124e-23                      18                                     0.17747568777192779            -3.841132805329211e-11           -3.5411078795821844e-24             3.8171519690588796e-23          1.3755842968349628e-27             0.0011809964554041861                    0.0011816245157874588                      0.0011816245157874588             -7.1386767634423759e-23     0.11676511897382931  0                     0.11676511897382931   0                       7                             7                           0                     0.99995010134370155  0.0099897166362183012  1.8837530574898445e-05        9.2187761421074983e-14              1.8584168178841718e-12       
                   -3.6754887484157156e-23                      19                                     0.20499655696279578            -3.8410619277373675e-11           -3.5410151246190332e-24             3.8171012617457345e-23          1.3715505720675336e-27             0.0011754554794059834                    0.0011816245157874588                      0.0011816245157874588             -7.4927271652186577e-23     0.12255702739818355  0                     0.12255702739818355   0                       8                             8                           0                     0.9999501020065753   0.0099896501275640367  1.8907822240598132e-05        9.218768716521272e-14              1.9506045050493847e-12       
                   -4.0648952905934631e-23                      20                                     0.24486812947454695            -3.8410290294438648e-11           -3.8940654217774735e-24             3.8170754450538774e-23          1.3559141795091368e-27             0.00116404750732311                    0.0011816245157874588                      0.0011816245157874588             -7.8821063270652912e-23     0.1289264600072057   0                     0.1289264600072057    0                       9                             9                           0                     0.99995010234406523  0.0099896163313839739  1.8907262386503455e-05        1.0138068511619313e-13              2.0519851901655779e-12       
                   -4.5201259016599832e-23                      21                                     0.2984411858082846             -3.841049691617138e-11           -4.5523061106651989e-24             3.8170838441309353e-23          1.3238739800891431e-27             0.0011439964504336569                    0.0011816245157874588                      0.0011816245157874588             -8.3373421331889274e-23     0.13637253290387752  0                     0.13637253290387752   0                       10                            10                          0                     0.99995010223426783  0.0099896275083256672  1.880668533497411e-05        1.1851836119076532e-13              2.1705035513563429e-12       
                   -5.0712494208580351e-23                      22                                     0.36813350812537121            -3.8411593436236381e-11           -5.5112351919805213e-24             3.8171487370124084e-23          1.2669797799623054e-27             0.0011104113586854476                    0.0011816245157874588                      0.0011816245157874588             -8.8885248558484396e-23     0.14538689475986794  0                     0.14538689475986794   0                       11                            11                          0                     0.99995010138595253  0.009989712930162967  1.8543779998226712e-05        1.4348226891814077e-13              2.3139858202744839e-12       
                   -5.7422309400905396e-23                      23                                     0.45576916086951735            -3.8414176289254048e-11           -6.7098151923250384e-24             3.8173086098696107e-23          1.1740790760751407e-27             0.0010561587234151893                    0.0011816245157874588                      0.0011816245157874588             -9.5596569578677568e-23     0.15636110797103492  0                     0.15636110797103492   0                       12                            12                          0                     0.99995009929600698  0.0099899231394634611  1.801615718432648e-05        1.7467991897798693e-13              2.4886657392524707e-12       
                   -6.5649581471148356e-23                      24                                     0.56393866966199813            -3.8419206721403789e-11           -8.2272720702429617e-24             3.8176257209396605e-23          1.0319827307163084e-27             0.00097046439354514752                    0.0011816245157874588                      0.0011816245157874588             -1.0382687066327568e-22     0.16981579409950354  0                     0.16981579409950354   0                       13                            13                          0                     0.99995009515055744  0.0099903398473283004  1.7060313948519863e-05        2.1416648040499151e-13              2.7028322196574623e-12       
                   -7.5766433178193035e-23                      25                                     0.69534819507504775            -3.8428196720014093e-11           -1.0116851707044688e-23             3.8181988695097024e-23          8.3104271347953677e-28             0.00083811193953713136                    0.0011816245157874588                      0.0011816245157874588             -1.1394925291600355e-22     0.18635758607480427  0                     0.18635758607480427   0                       14                            14                          0                     0.99995008765804538  0.0099910925899895624  1.5420965400918656e-05        2.6331258403298242e-13              2.9661448036904446e-12       
                   -8.8191063848312484e-23                      26                                     0.85228124709752329            -3.8443453582320147e-11           -1.2424630670119448e-23             3.8191805712591269e-23          5.8160007744539603e-28             0.00064116678524227862                    0.0011816245157874588                      0.0011816245157874588             -1.263834511609812e-22     0.20666636635567529  0                     0.20666636635567529   0                       15                            15                          0                     0.99995007482470222  0.0099923809939340587  1.2710409654126271e-05        3.2328676040144862e-13              3.2894315640918935e-12       
                   -1.0339225820605764e-22                      27                                     1.0361567822278155             -3.8468412950481413e-11           -1.5201194357745148e-23             3.8208010792011336e-23          3.5430172965259667e-28             0.00045397401783610103                    0.0011816245157874588                      0.0011816245157874588             -1.4160062329979863e-22     0.23150076293505017  0                     0.23150076293505017   0                       16                            16                          0                     0.99995005364053402  0.0099945056141454366  8.3531237701269357e-06        3.9534668906263857e-13              3.6847782531545318e-12       
                   -1.218905489534025e-22                      28                                     1.2839360551433345             -3.8508071472143387e-11           -1.8498290747344861e-23             3.8234009488480041e-23          3.7010293523436866e-28             0.0004498622286517935                    0.0011816245157874588                      0.0011816245157874588             -1.6012492854481778e-22     0.26169675922616198  0                     0.26169675922616198   0                       17                            17                          0                     0.99995001965361185  0.0099979090638946996  1.5137502191529993e-06        4.8073058080030379e-13              4.1655088339548358e-12       
                   -1.4426659639295321e-22                      29                                     1.6344919735794294             -3.8569554762069973e-11           -2.23760474395507e-23             3.8274757877563797e-23          1.1869220519785828e-27             0.0010168521260706222                    0.0011816245157874588                      0.0011816245157874588             -1.8254254119256898e-22     0.29817578079665419  0                     0.29817578079665419   0                       18                            18                          0                     0.99994996638507994  0.010003231158973979 -8.9972671867609503e-06        5.8080960146907004e-13              4.7463184354239053e-12       
                   -1.7198555398324839e-22                      30                                     2.0642897640117299             -3.8665888590262765e-11           -2.7718957590295201e-23             3.8339270383659314e-23          4.1863402344699405e-27             0.0020470540951571794                    0.0020470540951571794                      0.0020470540951571794             -2.1032901070714219e-22     0.34327569957179382  0                     0.34327569957179382   0                       19                            19                          0                     0.99994988205078306  0.010011627811853318 -2.5323733995554919e-05        7.1815757287652857e-13              5.4644760083004338e-12       
                   -2.0673529602069781e-22                      31                                     2.588980710113669              -3.8817578318032424e-11           -3.4749742037449404e-23             3.844211704719963e-23          1.2719444218631322e-26             0.0035944833337515957                    0.0035944833337515957                      0.0035944833337515957             -2.4519013251211608e-22     0.39964066156210115  0                     0.39964066156210115   0                       20                            20                          0                     0.99994974760395106  0.010024942653708679 -5.0828668686257274e-05        8.9769696609566069e-13              6.3621729743960946e-12       
                   -2.5037110621680674e-22                      32                                     3.2139784414611325             -3.9055588011650869e-11           -4.3635810196108957e-23             3.8606177346598055e-23          3.455387207842766e-26             0.0058701328530736752                    0.0058701328530736752                      0.0058701328530736752             -2.8901183743548324e-22     0.47007877465625109  0                     0.47007877465625109   0                       21                            21                          0                     0.99994953313523749  0.010046009092463164 -9.0584250675703813e-05        1.1221212076195758e-12              7.4842941820156704e-12       
                   -3.0530495605455122e-22                      33                                     4.0471910332622114             -3.94278556406828e-11           -5.4933849837744459e-23             3.8868551105963452e-23          8.7332869176737142e-26             0.0091785539009168766                    0.0091785539009168766                      0.0091785539009168766             -3.4426084002969141e-22     0.55809314557414236  0                     0.55809314557414236   0                       22                            22                          0                     0.99994919014562     0.01007928007945917 -0.00015242301906713906        1.4026515095244697e-12              8.8869456915401401e-12       
                   -3.7463054988461406e-22                      34                                     5.134949459135238              -4.0007495295277275e-11           -6.9325593830062831e-23             3.9289684977051258e-23          2.1039793234632964e-25             0.013948151549542279                    0.013948151549542279                      0.013948151549542279             -4.1413063279401165e-22     0.66788947564350065  0                     0.66788947564350065   0                       23                            23                          0                     0.99994863961566394  0.010131676949410182 -0.00024827711752832278        1.7507641939358823e-12              1.0637709885476023e-11       
                   -4.6276168269359662e-22                      35                                     6.4175115940943899             -4.0908618686338458e-11           -8.8131132808982614e-23             3.9972297291708868e-23          4.9178606721054709e-25             0.020827276919357745                    0.020827276919357745                      0.020827276919357745             -5.0322576605251606e-22     0.80501967998110824  0                     0.80501967998110824   0                       24                            24                          0                     0.99994774726564728  0.010214213938652019 -0.00039672941049276626        2.1884552424198528e-12              1.2826165127895875e-11       
                   -5.7578541484525893e-22                      36                                     8.1116576818568227             -4.2305447694236502e-11           -1.1302373215166226e-22             4.1093679757092102e-23          1.1278425875919491e-24             0.030788872802730311                    0.030788872802730311                      0.030788872802730311             -6.1800693718994295e-22     0.9762153585447475   0                     0.9762153585447475    0                       25                            25                          0                     0.99994628132824692  0.01034418530714014 -0.00062614460151346862        2.7355690530248162e-12              1.556173418092069e-11       
# Table End
