# ODT 1.0
# Table Start
# Title: mmArchive Data Table, Wed Jun 16 18:50:56 EDT 2010
# Columns: {Oxs_CGEvolve:evolve:Max mxHxm} {Oxs_CGEvolve:evolve:Total energy} {Oxs_CGEvolve:evolve:Delta E} {Oxs_CGEvolve:evolve:Bracket count} {Oxs_CGEvolve:evolve:Line min count} {Oxs_CGEvolve:evolve:Cycle count} {Oxs_CGEvolve:evolve:Cycle sub count} {Oxs_CGEvolve:evolve:Energy calc count} Oxs_UniaxialAnisotropy::Energy Oxs_UniformExchange::Energy {Oxs_UniformExchange::Max Spin Ang} {Oxs_UniformExchange::Stage Max Spin Ang} {Oxs_UniformExchange::Run Max Spin Ang} Oxs_ScriptUZeeman::Energy Oxs_ScriptUZeeman::B Oxs_ScriptUZeeman::Bx Oxs_ScriptUZeeman::By Oxs_ScriptUZeeman::Bz Oxs_MinDriver::Iteration {Oxs_MinDriver::Stage iteration} Oxs_MinDriver::Stage Oxs_MinDriver::mx    Oxs_MinDriver::my    Oxs_MinDriver::mz   
# Units:                 A/m                               J                                J                               {}                                   {}                                 {}                                  {}                                     {}                                  J                             J                              deg                                    deg                                      deg                               J                      mT                   mT                    mT                    mT                      {}                           {}                         {}                 {}                   {}                   {}           
                 4577.7506709181007               -3.5588197198488209e-21            -3.5588197198488209e-21              0                                    0                                  1                                   1                                      1                                   3.8246175382461758e-23          0                               0                                      0                                        0                               -3.5970658952312826e-21     5.8778525229247318   0                     5.8778525229247318    0                       0                            0                          0                    0.99995000374968757  0.0099995000374968751  0                  
                 4569.0294098705845               -3.845324044221565e-21            -2.8650432437274443e-22              1                                    0                                  1                                   1                                      2                                   4.4802830026884621e-23          2.3760157235497012e-24             0.050000000000000114                    0.050000000000000114                      0.050000000000000114             -3.8925028899719996e-21     5.8778525229247318   0                     5.8778525229247318    0                       1                            1                          0                    0.99994143249174283  0.01082078669891285  0                  
                 4507.8926750968185               -5.7023276334206131e-21            -1.8570035891990478e-21              2                                    0                                  1                                   1                                      3                                   1.0604580352360161e-22          1.5205953478208952e-22             0.39999360321929828                    0.39999360321929828                      0.39999360321929828             -5.9604329717263038e-21     5.8778525229247318   0                     5.8778525229247318    0                       2                            2                          0                    0.99986136817971061  0.016569435050742258  0                  
                 53673.124135928141               -1.1202671431976706e-20            -5.5003437985560926e-21              3                                    0                                  1                                   1                                      4                                   1.5583060906554722e-21          9.7094569425990062e-21             3.1966797885597749                     3.1966797885597749                       3.1966797885597749              -2.2470434465231184e-20     5.8778525229247318   0                     5.8778525229247318    0                       3                            3                          0                    0.9979607957426645   0.062465664189119086  0                  
                 52393.649123606367               -1.532561974364525e-20            -4.1229483116685437e-21              4                                    0                                  2                                   2                                      5                                   4.9934186788825685e-21          1.9438873976886964e-20             3.2992331278827347                     3.2992331278827347                       3.2992331278827347              -3.9757912399414783e-20     5.8778525229247318   0                     5.8778525229247318    0                       4                            4                          0                    0.99344894156614594  0.11052320366324107  0                  
                 35655.085624954176               -1.6222179482372769e-20            -8.9655973872751889e-22              4                                    1                                  2                                   2                                      6                                   3.7631289781397384e-21          1.4649445704254423e-20             3.2687454379776062                     3.2992331278827347                       3.2992331278827347              -3.4634754164766931e-20     5.8778525229247318   0                     5.8778525229247318    0                       5                            5                          0                    0.99506758525134542  0.096281312507624714  0                  
                 41381.539623576311               -1.958069852419937e-20            -3.3585190418266018e-21              5                                    1                                  3                                   3                                      7                                   6.5845912598755685e-21          1.8886609767890843e-20             2.8766157159093275                     3.2992331278827347                       3.2992331278827347              -4.5051899551965781e-20     5.8778525229247318   0                     5.8778525229247318    0                       6                            6                          0                    0.99134930498001628  0.12523998291396923  0                  
                 28886.464528820939               -2.0164444240378289e-20            -5.8374571617891865e-22              5                                    2                                  3                                   3                                      8                                   5.7096012504322897e-21          1.6289816976548794e-20             2.681750618899744                      3.2992331278827347                       3.2992331278827347              -4.2163862467359372e-20     5.8778525229247318   0                     5.8778525229247318    0                       7                            7                          0                    0.99250440024174136  0.11721151533040353  0                  
                 31122.657037272143               -2.2690135782790729e-20            -2.5256915424124404e-21              6                                    2                                  4                                   4                                      9                                   7.7960135840045102e-21          1.8102982152450436e-20             2.3942873028025224                     3.2992331278827347                       3.2992331278827347              -4.8589131519245677e-20     5.8778525229247318   0                     5.8778525229247318    0                       8                            8                          0                    0.98974580059176342  0.13507315033977094  0                  
                 23756.624764106327               -2.2892148886195609e-20            -2.0201310340488126e-22              6                                    3                                  4                                   4                                      10                                  7.3136080961705737e-21          1.7011825062457295e-20             2.396970889330206                      3.2992331278827347                       3.2992331278827347              -4.721758204482348e-20     5.8778525229247318   0                     5.8778525229247318    0                       9                            9                          0                    0.99038470628290343  0.13126037364332629  0                  
                 24882.025800554409               -2.4681892024891798e-20            -1.7897431386961886e-21              7                                    3                                  5                                   5                                      11                                  8.8853557366160011e-21          1.7869918568132144e-20             2.2505052392833473                     3.2992331278827347                       3.2992331278827347              -5.1437166329639947e-20     5.8778525229247318   0                     5.8778525229247318    0                       10                           10                         0                    0.98829961509319886  0.14299041541714555  0                  
                 19500.259809493604               -2.4789581256090638e-20            -1.0768923119883803e-22              7                                    4                                  5                                   5                                      12                                  8.564433494599137e-21          1.7272970552589013e-20             2.2786880043952005                     3.2992331278827347                       3.2992331278827347              -5.0626985303278789e-20     5.8778525229247318   0                     5.8778525229247318    0                       11                           11                         0                    0.98872604909530981  0.14073818945314032  0                  
                 20014.043668249877               -2.603035144789022e-20            -1.240770191799584e-21              8                                    4                                  6                                   6                                      13                                  9.7128822532450278e-21          1.7652317751863437e-20             2.1965892231121242                     3.2992331278827347                       3.2992331278827347              -5.3395551452998683e-20     5.8778525229247318   0                     5.8778525229247318    0                       12                           12                         0                    0.98719756824673111  0.14843453923495512  0                  
                 15839.45062285673                -2.609506588247818e-20            -6.4714434587959225e-23              8                                    5                                  6                                   6                                      14                                  9.4934759458911848e-21          1.7303835910638482e-20             2.211540747515583                      3.2992331278827347                       3.2992331278827347              -5.289237773900785e-20     5.8778525229247318   0                     5.8778525229247318    0                       13                           13                         0                    0.98749003409736313  0.14703576431159626  0                  
                 15976.081615732784               -2.6930346231667388e-20            -8.3528034918920837e-22              9                                    5                                  7                                   7                                      15                                  1.0297788407904951e-20          1.743538627364181e-20             2.1543152719432932                     3.2992331278827347                       3.2992331278827347              -5.4663520913214151e-20     5.8778525229247318   0                     5.8778525229247318    0                       14                           14                         0                    0.98641623550020874  0.1519593733731838   0                  
                 12618.133787588407               -2.6972148789031444e-20            -4.1802557364054207e-23              9                                    6                                  7                                   7                                      16                                  1.0147761393641204e-20          1.7226834493194826e-20             2.1645703034033619                     3.2992331278827347                       3.2992331278827347              -5.4346744675867476e-20     5.8778525229247318   0                     5.8778525229247318    0                       15                           15                         0                    0.98661682612847867  0.15107876565303457  0                  
                 12523.474592774095               -2.7509692077269515e-20            -5.3754328823807122e-22              10                                   6                                  8                                   8                                      17                                  1.0679281435060794e-20          1.7238216118552585e-20             2.131049731885593                      3.2992331278827347                       3.2992331278827347              -5.5427189630882897e-20     5.8778525229247318   0                     5.8778525229247318    0                       16                           16                         0                    0.98590508472442662  0.15408229955618408  0                  
                 9731.4629909095293               -2.7538528886604218e-20            -2.8836809334702343e-23              10                                   7                                  8                                   8                                      18                                  1.0578000374403995e-20          1.7112115928513917e-20             2.137221169956375                      3.2992331278827347                       3.2992331278827347              -5.522864518952213e-20     5.8778525229247318   0                     5.8778525229247318    0                       17                           17                         0                    0.98604089649250504  0.15353036494985289  0                  
                 9506.6023406948116               -2.7860381010191884e-20            -3.2185212358766971e-22              11                                   7                                  9                                   9                                      19                                  1.089975160253837e-20          1.7072782606866884e-20             2.1140742830551522                     3.2992331278827347                       3.2992331278827347              -5.5832915219597146e-20     5.8778525229247318   0                     5.8778525229247318    0                       18                           18                         0                    0.98560875499798162  0.15521017798758566  0                  
                 7101.6769716647732               -2.78817169123089e-20            -2.1335902117011679e-23              11                                   8                                  9                                   9                                      20                                  1.0833573356167122e-20          1.6997245514863918e-20             2.1186940024781609                     3.2992331278827347                       3.2992331278827347              -5.5712535783339937e-20     5.8778525229247318   0                     5.8778525229247318    0                       19                           19                         0                    0.98569775471608334  0.154875534638693    0                  
                 6820.5473397246542               -2.8051594376933569e-20            -1.6987746462467201e-22              12                                   8                                  10                                  10                                     21                                  1.1000900295785736e-20          1.6945952783548529e-20             2.1062898545298174                     3.2992331278827347                       3.2992331278827347              -5.599844745626783e-20     5.8778525229247318   0                     5.8778525229247318    0                       20                           20                         0                    0.98547226814257283  0.15567034181416162  0                  
                 4666.347937271461                -2.8068653678133389e-20            -1.7059301199818916e-23              12                                   9                                  10                                  10                                     22                                  1.0961015078962142e-20          1.6902568852875084e-20             2.1091677130356783                     3.2992331278827347                       3.2992331278827347              -5.5932237609970611e-20     5.8778525229247318   0                     5.8778525229247318    0                       21                           21                         0                    0.98552608207702097  0.15548628475771198  0                  
                 4385.4622611547184               -2.8137265164390377e-20            -6.8611486256988866e-23              13                                   9                                  11                                  11                                     23                                  1.1022740143839133e-20          1.685811467944705e-20             2.1016584781707381                     3.2992331278827347                       3.2992331278827347              -5.6018119987676564e-20     5.8778525229247318   0                     5.8778525229247318    0                       22                           22                         0                    0.98544244234091927  0.15572502957476675  0                  
                 2371.1232644744491               -2.8152116030666048e-20            -1.4850866275670183e-23              13                                   10                                 11                                  11                                     24                                  1.1003928688655183e-20          1.6836654742990118e-20             2.1038863268007599                     3.2992331278827347                       3.2992331278827347              -5.5992699462311347e-20     5.8778525229247318   0                     5.8778525229247318    0                       23                           23                         0                    0.98546796212196364  0.15565436293930709  0                  
                 2136.2040988483482               -2.8161183728863496e-20            -9.0676981974455002e-24              14                                   10                                 12                                  12                                     25                                  1.1003822651629817e-20          1.6806866186172818e-20             2.1009846681201241                     3.2992331278827347                       3.2992331278827347              -5.5971872566666131e-20     5.8778525229247318   0                     5.8778525229247318    0                       24                           24                         0                    0.98546768119772854  0.15559646615624803  0                  
                 944.51168460283009               -2.8175338945456406e-20            -1.4155216592915907e-23              14                                   11                                 12                                  12                                     26                                  1.100371514105944e-20          1.680196812661378e-20             2.1022568553782994                     3.2992331278827347                       3.2992331278827347              -5.5981022213129629e-20     5.8778525229247318   0                     5.8778525229247318    0                       25                           25                         0                    0.98546802270204437  0.15562190130056278  0                  
                 849.87257902652198               -2.8177202213341421e-20            -1.8632678850120518e-24              15                                   12                                 13                                  13                                     28                                  1.0989190395519733e-20          1.6780872041131125e-20             2.101581198540087                      3.2992331278827347                       3.2992331278827347              -5.5947264649992275e-20     5.8778525229247318   0                     5.8778525229247318    0                       26                           26                         0                    0.98548744628455365  0.1555280584954295   0                  
                 976.56781468533245               -2.8181184596508385e-20            -3.9823831669632218e-24              16                                   12                                 14                                  14                                     29                                  1.0956886951748582e-20          1.6734931938485128e-20             2.1004136655762595                     3.2992331278827347                       3.2992331278827347              -5.5873003486742093e-20     5.8778525229247318   0                     5.8778525229247318    0                       27                           27                         0                    0.9855306602809687   0.15532161954592646  0                  
                 1103.2619589211008               -2.8184467737316926e-20            -3.2831408085403002e-24              17                                   12                                 14                                  14                                     30                                  1.092463936636684e-20          1.6689628909372142e-20             2.0992461326134015                     3.2992331278827347                       3.2992331278827347              -5.5798736013055902e-20     5.8778525229247318   0                     5.8778525229247318    0                       28                           28                         0                    0.98557379548139523  0.15511516305401332  0                  
                 1356.646177397007                -2.8188936253588869e-20            -4.4685162719464355e-24              18                                   12                                 14                                  14                                     31                                  1.0860311921635784e-20          1.6600934119887744e-20             2.096911066694473                      3.2992331278827347                       3.2992331278827347              -5.5650182295112393e-20     5.8778525229247318   0                     5.8778525229247318    0                       29                           29                         0                    0.98565982939357477  0.15470219788978998  0                  
                 1634.7463889795008               -2.819062103112083e-20            -1.6847775319620311e-24              19                                   13                                 14                                  14                                     33                                  1.078996549138071e-20          1.6506518518161005e-20             2.0943481580186885                     3.2992331278827347                       3.2992331278827347              -5.5487105040662544e-20     5.8778525229247318   0                     5.8778525229247318    0                       30                           30                         0                    0.98575389484910025  0.15424885867958868  0                  
                 1188.1389623620109               -2.8208428149530785e-20            -1.7807118409952885e-23              20                                   13                                 15                                  15                                     34                                  1.0592230477227242e-20          1.6223698319374829e-20             2.0868180022422216                     3.2992331278827347                       3.2992331278827347              -5.5024356946132851e-20     5.8778525229247318   0                     5.8778525229247318    0                       31                           31                         0                    0.98601818215790749  0.15296246312182707  0                  
                 1542.4221822682443               -2.821179956651519e-20            -3.3714169844051467e-24              21                                   14                                 15                                  15                                     36                                  1.0462111317305487e-20          1.6043136372927523e-20             2.0818192515073255                     3.2992331278827347                       3.2992331278827347              -5.4717047256748198e-20     5.8778525229247318   0                     5.8778525229247318    0                       32                           32                         0                    0.98619201732141004  0.15210817150192685  0                  
                 1008.4229859160367               -2.8218814288877342e-20            -7.0147223621512828e-24              22                                   15                                 16                                  16                                     38                                  1.0348527791882876e-20          1.5876248355120375e-20             2.0774163044587963                     3.2992331278827347                       3.2992331278827347              -5.4443590435880588e-20     5.8778525229247318   0                     5.8778525229247318    0                       33                           33                         0                    0.98634364079341375  0.15134798762702356  0                  
                 1207.4354045900404               -2.8220852336098291e-20            -2.0380472209480139e-24              23                                   15                                 17                                  17                                     39                                  1.0241109346128224e-20          1.571115599076318e-20             2.0723169482348567                     3.2992331278827347                       3.2992331278827347              -5.4173117672989694e-20     5.8778525229247318   0                     5.8778525229247318    0                       34                           34                         0                    0.98648679559283581  0.15059609914862371  0                  
                 831.68266084980701               -2.8222413467537565e-20            -1.5611314392723278e-24              23                                   16                                 17                                  17                                     40                                  1.0283683067819012e-20          1.5774428123576552e-20             2.0743417983547485                     3.2992331278827347                       3.2992331278827347              -5.4280524658933133e-20     5.8778525229247318   0                     5.8778525229247318    0                       35                           35                         0                    0.98643006261608468  0.15089468032318396  0                  
                 748.5559669265923                -2.8226733215505992e-20            -4.3197479684280494e-24              24                                   16                                 18                                  18                                     41                                  1.0213887754647198e-20          1.5656919615625281e-20             2.0706835560526762                     3.2992331278827347                       3.2992331278827347              -5.4097540585778467e-20     5.8778525229247318   0                     5.8778525229247318    0                       36                           36                         0                    0.9865229514918914   0.15038600205604488  0                  
                 892.38889350027819               -2.8226933160991687e-20            -1.9994548569586034e-25              25                                   17                                 18                                  18                                     43                                  1.0195348138072492e-20          1.5626516673911418e-20             2.0697091791198896                     3.2992331278827347                       3.2992331278827347              -5.4048797972975597e-20     5.8778525229247318   0                     5.8778525229247318    0                       37                           37                         0                    0.98654762304634336  0.15025050224237835  0                  