# ODT 1.0
# Table Start
# Title: mmArchive Data Table, Wed Jun 16 18:51:00 EDT 2010
# Columns: {Oxs_RungeKuttaEvolve:evolver:Total energy} {Oxs_RungeKuttaEvolve:evolver:Energy calc count} {Oxs_RungeKuttaEvolve:evolver:Max dm/dt} Oxs_RungeKuttaEvolve:evolver:dE/dt {Oxs_RungeKuttaEvolve:evolver:Delta E} Oxs_UZeeman::Energy  Oxs_UZeeman::B       Oxs_UZeeman::Bx      Oxs_UZeeman::By      Oxs_UZeeman::Bz      Oxs_TimeDriver::Iteration {Oxs_TimeDriver::Stage iteration} Oxs_TimeDriver::Stage Oxs_TimeDriver::mx   Oxs_TimeDriver::my   Oxs_TimeDriver::mz   {Oxs_TimeDriver::Max Spin Ang} {Oxs_TimeDriver::Stage Max Spin Ang} {Oxs_TimeDriver::Run Max Spin Ang} {Oxs_TimeDriver::Last time step} {Oxs_TimeDriver::Simulation time}
# Units:                        J                                             {}                                         deg/ns                                 J/s                                   J                             J                 mT                   mT                   mT                   mT                        {}                            {}                          {}                   {}                   {}                   {}                        deg                               deg                                 deg                                s                                 s                
                       0                                              1                                            101.26648342765968                   -1.4069296969323552e-12                  0                             0                    10                   0                    0                    10                     0                             0                           0                     1                    0                    0                         0                                 0                                   0                                 0                                0                         
                      -1.3198673112010085e-25                            7                                            101.26648341387755                   -1.4069296965493954e-12                 -1.3198673112010085e-25          -1.3198673112010085e-25  10                   0                    0                    10                     1                             1                           0                     0.999999986254139    0.00016498341314417968  1.6498341390012604e-05       0                                 0                                   0                                 9.3811887985489106e-14              9.3811887985489106e-14       
                      -6.5993365416345784e-25                            13                                           101.26648308310646                   -1.4069296873583651e-12                 -5.2794692304335689e-25          -6.5993365416345784e-25  10                   0                    0                    10                     2                             2                           0                     0.99999965635349375  0.00082491697321103029  8.2491706770432212e-05       0                                 0                                   0                                 3.7524755194195643e-13              4.6905943992744552e-13       
                      -2.0668633066058449e-24                            19                                           101.26648004795092                   -1.4069296030214702e-12                 -1.4069296524423872e-24          -2.0668633066058449e-24  10                   0                    0                    10                     3                             3                           0                     0.99999662918684418  0.0025835762303357576  0.00025835791332573055       0                                 0                                   0                                 9.9999999999999998e-13              1.4690594399274456e-12       
                      -3.4737928311965248e-24                            25                                           101.26647388073252                   -1.4069294316549554e-12                 -1.4069295245906797e-24          -3.4737928311965248e-24  10                   0                    0                    10                     4                             4                           0                     0.99999047821060572  0.0043422272570179891  0.00043422410389956553       0                                 0                                   0                                 9.9999999999999998e-13              2.4690594399274456e-12       
                      -4.8807221409058962e-24                            31                                           101.26646458145221                   -1.4069291732588632e-12                 -1.4069293097093718e-24          -4.8807221409058962e-24  10                   0                    0                    10                     5                             5                           0                     0.99998120344475416  0.006100864450762607  0.000610090267613237       0                                 0                                   0                                 9.9999999999999998e-13              3.4690594399274454e-12       
                      -6.2876511487044129e-24                            37                                           101.26645215011143                   -1.4069288278332575e-12                 -1.4069290077985165e-24          -6.2876511487044129e-24  10                   0                    0                    10                     6                             6                           0                     0.99996880491940943  0.0078594822091202898  0.00078595639358805145       0                                 0                                   0                                 9.9999999999999998e-13              4.4690594399274451e-12       
                      -7.6945797675626013e-24                            43                                           101.2664365867121                    -1.4069283953782235e-12                 -1.4069286188581888e-24          -7.6945797675626013e-24  10                   0                    0                    10                     7                             7                           0                     0.99995328267483619  0.0096180749297060594  0.00096182247094532504       0                                 0                                   0                                 9.9999999999999998e-13              5.4690594399274457e-12       
                      -9.1015079104510863e-24                            49                                           101.26641789125662                   -1.4069278758938685e-12                 -1.4069281428884845e-24          -9.1015079104510863e-24  10                   0                    0                    10                     8                             8                           0                     0.99993463676144356  0.011376637010217825  0.0011376884888063855       0                                 0                                   0                                 9.9999999999999998e-13              6.4690594399274455e-12       
                      -1.0508435490340608e-23                            55                                           101.26639606374789                   -1.4069272693803211e-12                 -1.4069275798895215e-24          -1.0508435490340608e-23  10                   0                    0                    10                     9                             9                           0                     0.99991286723978479  0.013135162848454934  0.0013135544362925758       0                                 0                                   0                                 9.9999999999999998e-13              7.4690594399274453e-12       
                      -1.0508435490340608e-23                            56                                           101.26639606374789                   -1.4069272693803211e-12                  0                            -1.0508435490340608e-23  10                   0                    0                    10                     10                            0                           1                     0.99991286723978479  0.013135162848454934  0.0013135544362925758       0                                 0                                   0                                 0                                7.4690594399274453e-12       
                      -1.1915362420202048e-23                            62                                           101.26637110418929                   -1.4069265758377312e-12                 -1.4069269298614395e-24          -1.1915362420202048e-23  10                   0                    0                    10                     11                            1                           1                     0.99988797418055697  0.014893646842336716  0.0014894203025252557       0                                 0                                   0                                 9.9999999999999998e-13              8.4690594399274451e-12       
                      -1.3322288613006447e-23                            68                                           101.26634301258467                   -1.4069257952662703e-12                 -1.4069261928043988e-24          -1.3322288613006447e-23  10                   0                    0                    10                     12                            2                           1                     0.99985995766460123  0.016652083389921035  0.0016652860766258055       0                                 0                                   0                                 9.9999999999999998e-13              9.4690594399274448e-12       
                      -1.4729213981725028e-23                            74                                           101.26631178893838                   -1.4069249276661316e-12                 -1.4069253687185821e-24          -1.4729213981725028e-23  10                   0                    0                    10                     13                            3                           1                     0.999828817782902    0.018410466889422824  0.0018411517477156282       0                                 0                                   0                                 9.9999999999999998e-13              1.0469059439927445e-11       
                      -1.613613843932922e-23                            80                                           101.26627743325524                   -1.4069239730375298e-12                 -1.4069244576041931e-24          -1.613613843932922e-23  10                   0                    0                    10                     14                            4                           1                     0.99979455463658684  0.020168791739232635  0.0020170173049161525       0                                 0                                   0                                 9.9999999999999998e-13              1.1469059439927446e-11       
                      -1.613613843932922e-23                            81                                           101.26627743325524                   -1.4069239730375298e-12                  0                            -1.613613843932922e-23  10                   0                    0                    10                     15                            0                           2                     0.99979455463658684  0.020168791739232635  0.0020170173049161525       0                                 0                                   0                                 0                                1.1469059439927446e-11       
                      -1.7543061898790678e-23                            87                                           101.26623994554058                   -1.4069229313807013e-12                 -1.4069234594614574e-24          -1.7543061898790678e-23  10                   0                    0                    10                     16                            1                           2                     0.99975716833692652  0.0219270523379352   0.0021928827373488345       0                                 0                                   0                                 9.9999999999999998e-13              1.2469059439927446e-11       
                      -1.8949984273081299e-23                            93                                           101.26619932580019                   -1.4069218026959036e-12                 -1.4069223742906221e-24          -1.8949984273081299e-23  10                   0                    0                    10                     17                            2                           2                     0.99971665900533391  0.023685243084327939  0.0023687480341351621       0                                 0                                   0                                 9.9999999999999998e-13              1.3469059439927446e-11       
                      -2.0356905475173256e-23                            99                                           101.26615557404033                   -1.4069205869834162e-12                 -1.4069212020919552e-24          -2.0356905475173256e-23  10                   0                    0                    10                     18                            3                           2                     0.999673026773364    0.025443358377439534  0.0025446131843966566       0                                 0                                   0                                 9.9999999999999998e-13              1.4469059439927445e-11       
                      -2.0356905475173256e-23                            100                                          101.26615557404033                   -1.4069205869834162e-12                  0                            -2.0356905475173256e-23  10                   0                    0                    10                     19                            0                           3                     0.999673026773364    0.025443358377439534  0.0025446131843966566       0                                 0                                   0                                 0                                1.4469059439927445e-11       
                      -2.1763825418039003e-23                            106                                          101.2661086902678                    -1.4069192842435396e-12                 -1.4069199428657471e-24          -2.1763825418039003e-23  10                   0                    0                    10                     20                            1                           3                     0.99962627178271357  0.027201392616548466  0.002720478177254875       0                                 0                                   0                                 9.9999999999999998e-13              1.5469059439927445e-11       
                      -2.3170744014651313e-23                            112                                          101.26605867448983                   -1.4069178944765962e-12                 -1.4069185966123094e-24          -2.3170744014651313e-23  10                   0                    0                    10                     21                            2                           3                     0.99957639418522026  0.028959340201201542  0.0028963430018314135       0                                 0                                   0                                 9.9999999999999998e-13              1.6469059439927445e-11       
                      -2.3170744014651313e-23                            113                                          101.26605867448983                   -1.4069178944765962e-12                  0                            -2.3170744014651313e-23  10                   0                    0                    10                     22                            0                           4                     0.99957639418522026  0.028959340201201542  0.0028963430018314135       0                                 0                                   0                                 0                                1.6469059439927445e-11       
                      -2.4577661177983288e-23                            119                                          101.26600552671415                   -1.4069164176829301e-12                 -1.4069171633319751e-24          -2.4577661177983288e-23  10                   0                    0                    10                     23                            1                           4                     0.99952339414286262  0.030717195531232453  0.0030722076472479106       0                                 0                                   0                                 9.9999999999999998e-13              1.7469059439927445e-11       
                      -2.4577661177983288e-23                            120                                          101.26600552671415                   -1.4069164176829301e-12                  0                            -2.4577661177983288e-23  10                   0                    0                    10                     24                            0                           5                     0.99952339414286262  0.030717195531232453  0.0030722076472479106       0                                 0                                   0                                 0                                1.7469059439927445e-11       
# Table End
