# ODT 1.0
# Table Start
# Title: mmArchive Data Table, Wed Jun 16 18:51:03 EDT 2010
# Columns: {Oxs_SpinXferEvolve:evolver:Total energy} {Oxs_SpinXferEvolve:evolver:Energy calc count} {Oxs_SpinXferEvolve:evolver:Max dm/dt} Oxs_SpinXferEvolve:evolver:dE/dt {Oxs_SpinXferEvolve:evolver:Delta E} {Oxs_SpinXferEvolve:evolver:average J} Oxs_UZeeman::Energy  Oxs_UZeeman::B       Oxs_UZeeman::Bx      Oxs_UZeeman::By      Oxs_UZeeman::Bz      Oxs_TimeDriver::Iteration {Oxs_TimeDriver::Stage iteration} Oxs_TimeDriver::Stage Oxs_TimeDriver::mx   Oxs_TimeDriver::my   Oxs_TimeDriver::mz   {Oxs_TimeDriver::Max Spin Ang} {Oxs_TimeDriver::Stage Max Spin Ang} {Oxs_TimeDriver::Run Max Spin Ang} {Oxs_TimeDriver::Last time step} {Oxs_TimeDriver::Simulation time}
# Units:                       J                                           {}                                       deg/ns                               J/s                                 J                                   A/m^2                           J                 mT                   mT                   mT                   mT                        {}                            {}                          {}                   {}                   {}                   {}                        deg                               deg                                 deg                                s                                 s                
                      0                                            1                                          101.26648342765968                 -1.4069296969323552e-12                0                                     0                             0                    10                   0                    0                    10                     0                             0                           0                     1                    0                    0                         0                                 0                                   0                                 0                                0                         
                     -1.4069282464400673e-23                          7                                          101.26632682469015                 -1.4069253454590812e-12               -1.4069282464400673e-23                   0                            -1.4069282464400673e-23  10                   0                    0                    10                     1                             1                           0                     0.99984381315787219  0.017585687471545347  0.0017586603080500839       0                                 0                                   0                                 9.9999999999999994e-12              9.9999999999999994e-12       
                     -2.8138477899694765e-23                          13                                         101.26585701820335                 -1.4069122911469279e-12               -1.406919543529409e-23                   0                            -2.8138477899694765e-23  10                   0                    0                    10                     2                             2                           0                     0.99937530335226366  0.035165772873375661  0.0035173097374618448       0                                 0                                   0                                 9.9999999999999994e-12              1.9999999999999999e-11       
                     -4.2207499278929036e-23                          19                                         101.26507401546446                 -1.4068905343188944e-12               -1.4069021379234271e-23                   0                            -4.2207499278929036e-23  10                   0                    0                    10                     3                             3                           0                     0.99859462272837629  0.05273465599033543  0.0052759374098661285       0                                 0                                   0                                 9.9999999999999994e-12              3e-11                     
                     -5.6276259579456844e-23                          25                                         101.26397782858191                 -1.4068600755132948e-12               -1.4068760300527805e-23                   0                            -5.6276259579456844e-23  10                   0                    0                    10                     4                             4                           0                     0.99750202480447747  0.070286740315749385  0.007034532447432104       0                                 0                                   0                                 9.9999999999999994e-12              3.9999999999999998e-11       
                     -7.0344671785091121e-23                          31                                         101.26256847450676                 -1.4068209154837281e-12               -1.4068412205634282e-23                   0                            -7.0344671785091121e-23  10                   0                    0                    10                     5                             5                           0                     0.99609786438631687  0.087816434904065738  0.0087930839731363893       0                                 0                                   0                                 9.9999999999999994e-12              4.9999999999999995e-11       
                     -8.4412648888257092e-23                          37                                         101.26084597503223                 -1.4067730551990404e-12               -1.4067977103165965e-23                   0                            -8.4412648888257092e-23  10                   0                    0                    10                     6                             6                           0                     0.99438259744735236  0.10531815622158393  0.010551581111032134       0                                 0                                   0                                 9.9999999999999994e-12              6e-11                     
                     -9.8480103892144421e-23                          43                                         101.25881035679269                 -1.4067164958432725e-12               -1.4067455003887338e-23                   0                            -9.8480103892144421e-23  10                   0                    0                    10                     7                             7                           0                     0.99235678097482749  0.12278632999462931  0.012310012986518052       0                                 0                                   0                                 9.9999999999999994e-12              6.9999999999999991e-11       
                     -1.1254694981285896e-22                          49                                         101.25646165126287                 -1.4066512388155984e-12               -1.406684592071453e-23                   0                            -1.1254694981285896e-22  10                   0                    0                    10                     8                             8                           0                     0.99002107278175322  0.14021539305453823  0.014068368726607368       0                                 0                                   0                                 9.9999999999999994e-12              7.9999999999999995e-11       
                     -1.266130996815736e-22                          55                                         101.2537998947565                  -1.4065772857302516e-12               -1.4066149868714644e-23                   0                            -1.266130996815736e-22  10                   0                    0                    10                     9                             9                           0                     0.98737623128486229  0.15759979517881836  0.015826637460196698       0                                 0                                   0                                 9.9999999999999994e-12              8.9999999999999999e-11       
                     -1.266130996815736e-22                          56                                         101.2537998947565                  -1.4065772857302516e-12                0                                     0                            -1.266130996815736e-22  10                   0                    0                    10                     10                            0                           1                     0.98737623128486229  0.15759979517881836  0.015826637460196698       0                                 0                                   0                                 0                                8.9999999999999999e-11       
                     -1.4067846654667856e-22                          62                                         101.25082512842498                 -1.4064946384164404e-12               -1.4065366865104966e-23                   0                            -1.4067846654667856e-22  10                   0                    0                    10                     11                            1                           1                     0.98442311524861215  0.1749340009278498   0.017584808318334817       0                                 0                                   0                                 9.9999999999999994e-12              9.9999999999999991e-11       
                     -1.5474296347593061e-22                          68                                         101.2475373982559                  -1.406403298918251e-12               -1.4064496929252052e-23                   0                            -1.5474296347593061e-22  10                   0                    0                    10                     12                            2                           1                     0.98116268349532776  0.19221249147649516  0.019342870434491323       0                                 0                                   0                                 9.9999999999999994e-12              1.0999999999999999e-10       
                     -1.6880650355860135e-22                          74                                         101.24393675507123                 -1.4063032694945416e-12               -1.4063540082670719e-23                   0                            -1.6880650355860135e-22  10                   0                    0                    10                     13                            3                           1                     0.97759599458158564  0.20942976643998742  0.021100812944825163       0                                 0                                   0                                 9.9999999999999994e-12              1.2e-10                   
                     -1.8286899990762425e-22                          80                                         101.24002325452544                 -1.406194552618822e-12               -1.4062496349022912e-23                   0                            -1.8286899990762425e-22  10                   0                    0                    10                     14                            4                           1                     0.97372420644095414  0.22658034569346769  0.022858624988453029       0                                 0                                   0                                 9.9999999999999994e-12              1.2999999999999999e-10       
                     -1.8286899990762425e-22                          81                                         101.24002325452544                 -1.406194552618822e-12                0                                     0                            -1.8286899990762425e-22  10                   0                    0                    10                     15                            0                           2                     0.97372420644095414  0.22658034569346769  0.022858624988453029       0                                 0                                   0                                 0                                1.2999999999999999e-10       
                     -1.9693036566174071e-22                          87                                         101.23579695710336                 -1.4060771509791251e-12               -1.4061365754116455e-23                   0                            -1.9693036566174071e-22  10                   0                    0                    10                     16                            1                           2                     0.96954857599321309  0.24365877118454582  0.024616295707717586       0                                 0                                   0                                 9.9999999999999994e-12              1.3999999999999998e-10       
                     -2.1099051398764441e-22                          93                                         101.23125792811797                 -1.4059510674778646e-12               -1.4060148325903704e-23                   0                            -2.1099051398764441e-22  10                   0                    0                    10                     17                            2                           2                     0.96507045872019337  0.26065960873826116  0.026373814248455547       0                                 0                                   0                                 9.9999999999999994e-12              1.5e-10                   
                     -2.2504935808212448e-22                          99                                         101.22640623770785                 -1.4058163052316834e-12               -1.4058844094480073e-23                   0                            -2.2504935808212448e-22  10                   0                    0                    10                     18                            3                           2                     0.96029130820838327  0.27757744985382155  0.028131169760265556       0                                 0                                   0                                 9.9999999999999994e-12              1.5999999999999999e-10       
                     -2.2504935808212448e-22                          100                                        101.22640623770785                 -1.4058163052316834e-12                0                                     0                            -2.2504935808212448e-22  10                   0                    0                    10                     19                            0                           3                     0.96029130820838327  0.27757744985382155  0.028131169760265556       0                                 0                                   0                                 0                                1.5999999999999999e-10       
                     -2.3910681117420695e-22                          106                                        101.22124196083465                 -1.4056728675712891e-12               -1.4057453092082458e-23                   0                            -2.3910681117420695e-22  10                   0                    0                    10                     20                            1                           3                     0.95521267565846324  0.29440691349250314  0.029888351396775863       0                                 0                                   0                                 9.9999999999999994e-12              1.6999999999999998e-10       
                     -2.5316278652729447e-22                          112                                        101.21576517728012                 -1.4055207580412803e-12               -1.4055975353087537e-23                   0                            -2.5316278652729447e-22  10                   0                    0                    10                     21                            2                           3                     0.94983620936194157  0.31114264785609558  0.031645348315911807       0                                 0                                   0                                 9.9999999999999994e-12              1.8e-10                   
                     -2.5316278652729447e-22                          113                                        101.21576517728012                 -1.4055207580412803e-12                0                                     0                            -2.5316278652729447e-22  10                   0                    0                    10                     22                            0                           4                     0.94983620936194157  0.31114264785609558  0.031645348315911807       0                                 0                                   0                                 0                                1.8e-10                   
                     -2.6721719744130444e-22                          119                                        101.20997597164323                 -1.4053599803999594e-12               -1.405441091400998e-23                   0                            -2.6721719744130444e-22  10                   0                    0                    10                     23                            1                           4                     0.94416365414507508  0.3277793321552821   0.03340214968016305       0                                 0                                   0                                 9.9999999999999994e-12              1.8999999999999999e-10       
                     -2.6721719744130444e-22                          120                                        101.20997597164323                 -1.4053599803999594e-12                0                                     0                            -2.6721719744130444e-22  10                   0                    0                    10                     24                            0                           5                     0.94416365414507508  0.3277793321552821   0.03340214968016305       0                                 0                                   0                                 0                                1.8999999999999999e-10       
# Table End
