# ODT 1.0
# Table Start
# Title: mmArchive Data Table, Wed Jun 16 18:51:04 EDT 2010
# Columns: {Oxs_EulerEvolve:evolver:Total energy} {Oxs_EulerEvolve:evolver:Energy calc count} {Oxs_EulerEvolve:evolver:Max dm/dt} Oxs_EulerEvolve:evolver:dE/dt {Oxs_EulerEvolve:evolver:Delta E} Oxs_UZeeman::Energy  Oxs_UZeeman::B       Oxs_UZeeman::Bx      Oxs_UZeeman::By      Oxs_UZeeman::Bz      Oxs_TimeDriver::Iteration {Oxs_TimeDriver::Stage iteration} Oxs_TimeDriver::Stage Oxs_TimeDriver::mx   Oxs_TimeDriver::my   Oxs_TimeDriver::mz   {Oxs_TimeDriver::Max Spin Ang} {Oxs_TimeDriver::Stage Max Spin Ang} {Oxs_TimeDriver::Run Max Spin Ang} {Oxs_TimeDriver::Last time step} {Oxs_TimeDriver::Simulation time}
# Units:                     J                                        {}                                    deg/ns                             J/s                              J                          J                 mT                   mT                   mT                   mT                        {}                            {}                          {}                   {}                   {}                   {}                        deg                               deg                                 deg                                s                                 s                
                     0                                        1                                       101.26648342765968              -1.4069296969323552e-12             0                           0                    10                   0                    0                    10                     0                             0                           0                     1                    0                    0                         0                                 0                                   0                                 0                                0                         
                    -1.406709998549962e-23                      2                                       101.26632687327208              -1.4069253468090097e-12            -1.406709998549962e-23        -1.406709998549962e-23  10                   0                    0                    10                     1                             1                           0                     0.99984384551490235  0.017583874981874522  0.0017583874981874524       0                                 0                                   0                                 9.9999999999999994e-12              9.9999999999999994e-12       
                    -2.8131959849385208e-23                      3                                       101.26585730837598              -1.4069122992098121e-12            -1.4064859863885587e-23        -2.8131959849385208e-23  10                   0                    0                    10                     2                             2                           0                     0.9993754317933532   0.03516220401078636  0.0035164949811731508       0                                 0                                   0                                 9.9999999999999994e-12              1.9999999999999999e-11       
                    -4.2194493034591397e-23                      4                                       101.26507488395764              -1.4068905584511007e-12            -1.4062533185206186e-23        -4.2194493034591397e-23  10                   0                    0                    10                     3                             3                           0                     0.99859490946718932  0.052729388608751669  0.005274311629323924       0                                 0                                   0                                 9.9999999999999994e-12              3e-11                     
                    -5.6254613081410028e-23                      5                                       101.26397975577768              -1.406860129062343e-12            -1.4060120046818631e-23        -5.6254613081410028e-23  10                   0                    0                    10                     4                             4                           0                     0.99750253049646598  0.0702798340017948   0.0070318266351762524       0                                 0                                   0                                 9.9999999999999994e-12              3.9999999999999998e-11       
                    -7.0312233629562678e-23                      6                                       101.26257208436172              -1.4068210157857375e-12            -1.4057620548152653e-23        -7.0312233629562678e-23  10                   0                    0                    10                     5                             5                           0                     0.99609864808253701  0.087807950971416068  0.0087890292036953335       0                                 0                                   0                                 9.9999999999999994e-12              4.9999999999999995e-11       
                    -8.436726842026639e-23                      7                                       101.26085203499092              -1.4067732235758061e-12            -1.4055034790703709e-23        -8.436726842026639e-23  10                   0                    0                    10                     6                             6                           0                     0.99438371654697622  0.10530815770406658  0.010545908552533297       0                                 0                                   0                                 9.9999999999999994e-12              6e-11                     
                    -9.8419631298292513e-23                      8                                       101.25881977769232              -1.4067167575989753e-12            -1.4052362878026129e-23        -9.8419631298292513e-23  10                   0                    0                    10                     7                             7                           0                     0.99235829117638386  0.12277488163799366  0.012302453912286564       0                                 0                                   0                                 9.9999999999999994e-12              6.9999999999999991e-11       
                    -1.1246923621401864e-22                      9                                       101.25647548722905              -1.4066516232331456e-12            -1.4049604915726122e-23        -1.1246923621401864e-22  10                   0                    0                    10                     8                             8                           0                     0.99002302803313846  0.1402025613068214   0.014058654526752328       0                                 0                                   0                                 9.9999999999999994e-12              7.9999999999999995e-11       
                    -1.2651599722547334e-22                      10                                      101.25381934309033              -1.406577826067252e-12            -1.4046761011454712e-23        -1.2651599722547334e-22  10                   0                    0                    10                     9                             9                           0                     0.98737868373215898  0.15758564817923199  0.015814499653184166       0                                 0                                   0                                 9.9999999999999994e-12              8.9999999999999999e-11       
                    -1.2651599722547334e-22                      11                                      101.25381934309033              -1.406577826067252e-12             0                          -1.2651599722547334e-22  10                   0                    0                    10                     10                            0                           1                     0.98737868373215898  0.15758564817923199  0.015814499653184166       0                                 0                                   0                                 0                                8.9999999999999999e-11       
                    -1.405598285003739e-22                      12                                      101.25085152948128              -1.4064953719008132e-12            -1.4043831274900565e-23        -1.405598285003739e-22  10                   0                    0                    10                     11                            1                           1                     0.98442611518376244  0.17491860849411489  0.017569978562546738       0                                 0                                   0                                 9.9999999999999994e-12              9.9999999999999991e-11       
                    -1.5460064431815665e-22                      13                                      101.24757223531266              -1.406404266743469e-12            -1.4040815817782728e-23        -1.5460064431815665e-22  10                   0                    0                    10                     12                            2                           1                     0.98116627930270717  0.19219592509055325  0.019325080539769578       0                                 0                                   0                                 9.9999999999999994e-12              1.0999999999999999e-10       
                    -1.686383590719999e-22                      14                                      101.24398165419034              -1.4063045168145096e-12            -1.4037714753843252e-23        -1.686383590719999e-22  10                   0                    0                    10                     13                            3                           1                     0.97760023268352803  0.20941209923201778  0.021079794883999983       0                                 0                                   0                                 9.9999999999999994e-12              1.2e-10                   
                    -1.8267288727083965e-22                      15                                      101.24007998440466              -1.4061961285423931e-12            -1.4034528198839752e-23        -1.8267288727083965e-22  10                   0                    0                    10                     14                            4                           1                     0.97372913124227967  0.22656165242414153  0.022834110908854954       0                                 0                                   0                                 9.9999999999999994e-12              1.2999999999999999e-10       
                    -1.8267288727083965e-22                      16                                      101.24007998440466              -1.4061961285423931e-12             0                          -1.8267288727083965e-22  10                   0                    0                    10                     15                            0                           2                     0.97372913124227967  0.22656165242414153  0.022834110908854954       0                                 0                                   0                                 0                                1.2999999999999999e-10       
                    -1.9670414354137748e-22                      17                                      101.23586742891968              -1.4060791085642515e-12            -1.403125627053784e-23        -1.9670414354137748e-22  10                   0                    0                    10                     16                            1                           2                     0.96955422982481654  0.24363912822545078  0.024588017942672184       0                                 0                                   0                                 9.9999999999999994e-12              1.3999999999999998e-10       
                    -2.1073204263008096e-22                      18                                      101.23134419536207              -1.4059534637253894e-12            -1.402789908870348e-23        -2.1073204263008096e-22  10                   0                    0                    10                     17                            2                           2                     0.96507688178175     0.26063909405043023  0.026341505328760118       0                                 0                                   0                                 9.9999999999999994e-12              1.5e-10                   
                    -2.247564994051762e-22                      19                                      101.22651049601012              -1.4058192010787692e-12            -1.4024456775095255e-23        -2.247564994051762e-22  10                   0                    0                    10                     18                            3                           2                     0.96029853851023383  0.27755614296430275  0.028094562425647025       0                                 0                                   0                                 9.9999999999999994e-12              1.5999999999999999e-10       
                    -2.247564994051762e-22                      20                                      101.22651049601012              -1.4058192010787692e-12             0                          -2.247564994051762e-22  10                   0                    0                    10                     19                            0                           3                     0.96029853851023383  0.27755614296430275  0.028094562425647025       0                                 0                                   0                                 0                                1.5999999999999999e-10       
                    -2.3877742885863276e-22                      21                                      101.22136654778234              -1.4056763278844885e-12            -1.4020929453456535e-23        -2.3877742885863276e-22  10                   0                    0                    10                     20                            1                           3                     0.95522074896274212  0.2943848954689085   0.029847178607329092       0                                 0                                   0                                 9.9999999999999994e-12              1.6999999999999998e-10       
                    -2.5279474610814031e-22                      22                                      101.21591257222603              -1.4055248516092458e-12            -1.4017317249507544e-23        -2.5279474610814031e-22  10                   0                    0                    10                     21                            2                           3                     0.94984515912301515  0.31112000127906975  0.031599343263517536       0                                 0                                   0                                 9.9999999999999994e-12              1.8e-10                   
                    -2.5279474610814031e-22                      23                                      101.21591257222603              -1.4055248516092458e-12             0                          -2.5279474610814031e-22  10                   0                    0                    10                     22                            0                           4                     0.94984515912301515  0.31112000127906975  0.031599343263517536       0                                 0                                   0                                 0                                1.8e-10                   
                    -2.6680836639907767e-22                      24                                      101.2101487955057               -1.4053647799257968e-12            -1.401362029093736e-23        -2.6680836639907767e-22  10                   0                    0                    10                     23                            1                           4                     0.94417351144935835  0.32775614108883211  0.033351045799884703       0                                 0                                   0                                 9.9999999999999994e-12              1.8999999999999999e-10       
                    -2.6680836639907767e-22                      25                                      101.2101487955057               -1.4053647799257968e-12             0                          -2.6680836639907767e-22  10                   0                    0                    10                     24                            0                           5                     0.94417351144935835  0.32775614108883211  0.033351045799884703       0                                 0                                   0                                 0                                1.8999999999999999e-10       
# Table End
