# ODT 1.0
# Table Start
# Title: mmArchive Data Table, Wed Jun 16 18:51:05 EDT 2010
# Columns: {Oxs_CGEvolve:evolver:Max mxHxm} {Oxs_CGEvolve:evolver:Total energy} {Oxs_CGEvolve:evolver:Delta E} {Oxs_CGEvolve:evolver:Bracket count} {Oxs_CGEvolve:evolver:Line min count} {Oxs_CGEvolve:evolver:Cycle count} {Oxs_CGEvolve:evolver:Cycle sub count} {Oxs_CGEvolve:evolver:Energy calc count} Oxs_UZeeman::Energy  Oxs_UZeeman::B       Oxs_UZeeman::Bx      Oxs_UZeeman::By      Oxs_UZeeman::Bz      Oxs_MinDriver::Iteration {Oxs_MinDriver::Stage iteration} Oxs_MinDriver::Stage Oxs_MinDriver::mx    Oxs_MinDriver::my    Oxs_MinDriver::mz    {Oxs_MinDriver::Max Spin Ang} {Oxs_MinDriver::Stage Max Spin Ang} {Oxs_MinDriver::Run Max Spin Ang}
# Units:                 A/m                                 J                                J                                 {}                                   {}                                   {}                                   {}                                      {}                             J                 mT                   mT                   mT                   mT                        {}                           {}                         {}                 {}                   {}                   {}                         deg                              deg                                deg               
                  7957.7471545947674                0                                 0                                 0                                    0                                    1                                    1                                       1                              0                    10                   0                    0                    10                     0                            0                          0                    1                    0                    0                        0                                0                                  0                         
                  7957.7441245094524               -6.9813161218811981e-24              -6.9813161218811981e-24               1                                    0                                    1                                    1                                       2                             -6.9813161218811981e-24  10                   0                    0                    10                     1                            1                          0                    0.99999961922824943  0                    0.00087266451523514957      0                                0                                  0                         
                  7957.5532361123569               -5.5849189246379477e-23              -4.8867873124498276e-23               2                                    0                                    1                                    1                                       3                             -5.5849189246379477e-23  10                   0                    0                    10                     2                            2                          0                    0.99997563148481061  0                    0.0069811486557974332      0                                0                                  0                         
                  7945.3648784156603               -4.4610917306834094e-22              -3.9025998382196154e-22               3                                    0                                    1                                    1                                       4                             -4.4610917306834094e-22  10                   0                    0                    10                     3                            3                          0                    0.9984439972848399   0                    0.055763646633542614      0                                0                                  0                         
                  7836.8510943557649               -1.389185421335443e-21              -9.4307624826710201e-22               4                                    0                                    1                                    1                                       5                             -1.389185421335443e-21  10                   0                    0                    10                     4                            4                          0                    0.98480775301220802  0                    0.17364817766693036      0                                0                                  0                         
                  7835.6422203346247               -1.3960601466159359e-21              -6.8747252804929776e-24               5                                    0                                    2                                    0                                       6                             -1.3960601466159359e-21  10                   0                    0                    10                     5                            5                          0                    0.98465584142245077  0                    0.17450751832699196      0                                0                                  0                         
                  7827.013233586511                -1.4441522835186827e-21              -4.8092136902746807e-23               6                                    0                                    2                                    0                                       7                             -1.4441522835186827e-21  10                   0                    0                    10                     6                            6                          0                    0.98357149096741892  0                    0.18051903543983533      0                                0                                  0                         
                  7747.6000329334693               -1.8263556173755515e-21              -3.8220333385686858e-22               7                                    0                                    2                                    0                                       8                             -1.8263556173755515e-21  10                   0                    0                    10                     7                            7                          0                    0.97359213385663301  0                    0.22829445217194388      0                                0                                  0                         
                  7477.8362792527623               -2.7361611466053502e-21              -9.0980552922979887e-22               8                                    0                                    2                                    0                                       9                             -2.7361611466053502e-21  10                   0                    0                    10                     8                            8                          0                    0.93969262078590843  0                    0.34202014332566871      0                                0                                  0                         
                  7475.4582923212074               -2.7427203959955859e-21              -6.5592493902358253e-24               9                                    0                                    3                                    0                                       10                            -2.7427203959955859e-21  10                   0                    0                    10                     9                            9                          0                    0.93939379413492818  0                    0.34284004949944819      0                                0                                  0                         
                  7475.4582923212074               -2.7427203959955859e-21               0                                 9                                    0                                    4                                    1                                       11                            -2.7427203959955859e-21  10                   0                    0                    10                     10                           0                          1                    0.93939379413492818  0                    0.34284004949944819      0                                0                                  0                         
                  7473.0746125029727               -2.7492775566849289e-21              -6.557160689342817e-24               10                                   0                                    4                                    0                                       12                            -2.7492775566849289e-21  10                   0                    0                    10                     11                           1                          1                    0.93909425209470909  0                    0.34365969458561607      0                                0                                  0                         
                  7456.2299163898406               -2.7951179417574718e-21              -4.5840385072543031e-23               11                                   0                                    4                                    0                                       13                            -2.7951179417574718e-21  10                   0                    0                    10                     12                           2                          1                    0.93697748515227042  0                    0.34938974271968393      0                                0                                  0                         
                  7311.690158323343                -3.1575249042995563e-21              -3.6240696254208422e-22               12                                   0                                    4                                    0                                       14                            -3.1575249042995563e-21  10                   0                    0                    10                     13                           3                          1                    0.91881408346853621  0                    0.39469061303744446      0                                0                                  0                         
                  6888.1363468600284               -4.0060444740263969e-21              -8.4851956972684116e-22               13                                   0                                    4                                    0                                       15                            -4.0060444740263969e-21  10                   0                    0                    10                     14                           4                          1                    0.86558874176881206  0                    0.50075555925329962      0                                0                                  0                         
                  6888.1363468600284               -4.0060444740263969e-21               0                                 13                                   0                                    5                                    1                                       16                            -4.0060444740263969e-21  10                   0                    0                    10                     15                           0                          2                    0.86558874176881206  0                    0.50075555925329962      0                                0                                  0                         
                  6884.6562553321864               -4.0120858972756597e-21              -6.0414232492622361e-24               14                                   0                                    5                                    0                                       17                            -4.0120858972756597e-21  10                   0                    0                    10                     16                           1                          2                    0.86515142056970451  0                    0.50151073715945738      0                                0                                  0                         
                  6860.1494107772496               -4.0542892821193643e-21              -4.2203384843704765e-23               15                                   0                                    5                                    0                                       18                            -4.0542892821193643e-21  10                   0                    0                    10                     17                           2                          2                    0.86207179965704617  0                    0.50678616026492052      0                                0                                  0                         
                  6655.2066061523938               -4.3859581357555104e-21              -3.3166885363614632e-22               16                                   0                                    5                                    0                                       19                            -4.3859581357555104e-21  10                   0                    0                    10                     18                           3                          2                    0.83631792728042476  0                    0.54824476696943869      0                                0                                  0                         
                  6655.2066061523938               -4.3859581357555104e-21               0                                 16                                   0                                    6                                    1                                       20                            -4.3859581357555104e-21  10                   0                    0                    10                     19                           0                          3                    0.83631792728042476  0                    0.54824476696943869      0                                0                                  0                         
                  6651.396817194779                -4.3917950655352947e-21              -5.8369297797838233e-24               17                                   0                                    6                                    0                                       21                            -4.3917950655352947e-21  10                   0                    0                    10                     20                           1                          3                    0.83583917508038597  0                    0.54897438319191172      0                                0                                  0                         
                  6624.5871205254607               -4.4325589346588831e-21              -4.0763869123589052e-23               18                                   0                                    6                                    0                                       22                            -4.4325589346588831e-21  10                   0                    0                    10                     21                           2                          3                    0.83247016923633399  0                    0.55406986683236037      0                                0                                  0                         
                  6624.5871205254607               -4.4325589346588831e-21               0                                 18                                   0                                    7                                    1                                       23                            -4.4325589346588831e-21  10                   0                    0                    10                     22                           0                          4                    0.83247016923633399  0                    0.55406986683236037      0                                0                                  0                         
                  6620.7368911496342               -4.4383689842791332e-21              -5.8100496202497372e-24               19                                   0                                    7                                    0                                       24                            -4.4383689842791332e-21  10                   0                    0                    10                     23                           1                          4                    0.83198633514346465  0                    0.55479612303489156      0                                0                                  0                         
                  6620.7368911496342               -4.4383689842791332e-21               0                                 19                                   0                                    8                                    1                                       25                            -4.4383689842791332e-21  10                   0                    0                    10                     24                           0                          5                    0.83198633514346465  0                    0.55479612303489156      0                                0                                  0                         
# Table End
