# ODT 1.0
# Table Start
# Title: mmArchive Data Table, Wed Jun 16 18:51:00 EDT 2010
# Columns: {Oxs_SpinXferEvolve:evolver:Total energy} {Oxs_SpinXferEvolve:evolver:Energy calc count} {Oxs_SpinXferEvolve:evolver:Max dm/dt} Oxs_SpinXferEvolve:evolver:dE/dt {Oxs_SpinXferEvolve:evolver:Delta E} {Oxs_SpinXferEvolve:evolver:average J} Oxs_UZeeman::Energy  Oxs_UZeeman::B       Oxs_UZeeman::Bx      Oxs_UZeeman::By      Oxs_UZeeman::Bz      Oxs_TimeDriver::Iteration {Oxs_TimeDriver::Stage iteration} Oxs_TimeDriver::Stage Oxs_TimeDriver::mx   Oxs_TimeDriver::my   Oxs_TimeDriver::mz   {Oxs_TimeDriver::Max Spin Ang} {Oxs_TimeDriver::Stage Max Spin Ang} {Oxs_TimeDriver::Run Max Spin Ang} {Oxs_TimeDriver::Last time step} {Oxs_TimeDriver::Simulation time}
# Units:                       J                                           {}                                       deg/ns                               J/s                                 J                                   A/m^2                           J                 mT                   mT                   mT                   mT                        {}                            {}                          {}                   {}                   {}                   {}                        deg                               deg                                 deg                                s                                 s                
                      0                                            1                                          101.26648342765968                 -1.4069296969323552e-12                0                                     0                             0                    10                   0                    0                    10                     0                             0                           0                     1                    0                    0                         0                                 0                                   0                                 0                                0                         
                     -1.4069282464400573e-23                          7                                          101.26632682469015                 -1.4069253454590812e-12               -1.4069282464400573e-23                   0                            -1.4069282464400573e-23  10                   0                    0                    10                     1                             1                           0                     0.99984381315787219  0.017585687471545482  0.0017586603080500716       0                                 0                                   0                                 9.9999999999999994e-12              9.9999999999999994e-12       
                     -2.8138477899694466e-23                          13                                         101.26585701820335                 -1.4069122911469279e-12               -1.406919543529389e-23                   0                            -2.8138477899694466e-23  10                   0                    0                    10                     2                             2                           0                     0.99937530335226366  0.035165772873375925  0.0035173097374618075       0                                 0                                   0                                 9.9999999999999994e-12              1.9999999999999999e-11       
                     -4.2207499278928431e-23                          19                                         101.26507401546446                 -1.4068905343188944e-12               -1.4069021379233971e-23                   0                            -4.2207499278928431e-23  10                   0                    0                    10                     3                             3                           0                     0.99859462272837629  0.052734655990335826  0.0052759374098660531       0                                 0                                   0                                 9.9999999999999994e-12              3e-11                     
                     -5.6276259579455833e-23                          25                                         101.26397782858191                 -1.4068600755132948e-12               -1.4068760300527402e-23                   0                            -5.6276259579455833e-23  10                   0                    0                    10                     4                             4                           0                     0.99750202480447747  0.070286740315749899  0.0070345324474319782       0                                 0                                   0                                 9.9999999999999994e-12              3.9999999999999998e-11       
                     -7.0344671785089616e-23                          31                                         101.26256847450676                 -1.4068209154837283e-12               -1.4068412205633777e-23                   0                            -7.0344671785089616e-23  10                   0                    0                    10                     5                             5                           0                     0.99609786438631687  0.087816434904066376  0.0087930839731362002       0                                 0                                   0                                 9.9999999999999994e-12              4.9999999999999995e-11       
                     -8.4412648888254976e-23                          37                                         101.26084597503223                 -1.4067730551990406e-12               -1.406797710316536e-23                   0                            -8.4412648888254976e-23  10                   0                    0                    10                     6                             6                           0                     0.99438259744735236  0.10531815622158468  0.01055158111103187       0                                 0                                   0                                 9.9999999999999994e-12              6e-11                     
                     -9.84801038921416e-23                          43                                         101.25881035679269                 -1.4067164958432727e-12               -1.4067455003886633e-23                   0                            -9.84801038921416e-23  10                   0                    0                    10                     7                             7                           0                     0.99235678097482738  0.12278632999463017  0.0123100129865177        0                                 0                                   0                                 9.9999999999999994e-12              6.9999999999999991e-11       
                     -1.1254694981285532e-22                          49                                         101.25646165126288                 -1.4066512388155986e-12               -1.4066845920713721e-23                   0                            -1.1254694981285532e-22  10                   0                    0                    10                     8                             8                           0                     0.99002107278175311  0.1402153930545392   0.014068368726606913       0                                 0                                   0                                 9.9999999999999994e-12              7.9999999999999995e-11       
                     -1.2661309968156906e-22                          55                                         101.2537998947565                  -1.4065772857302518e-12               -1.4066149868713736e-23                   0                            -1.2661309968156906e-22  10                   0                    0                    10                     9                             9                           0                     0.98737623128486218  0.15759979517881942  0.015826637460196132       0                                 0                                   0                                 9.9999999999999994e-12              8.9999999999999999e-11       
                     -1.2661309968156906e-22                          56                                         101.2537998947565                  -1.4065772857302518e-12                0                                     0                            -1.2661309968156906e-22  10                   0                    0                    10                     10                            0                           1                     0.98737623128486218  0.15759979517881942  0.015826637460196132       0                                 0                                   0                                 0                                8.9999999999999999e-11       
                     -1.4067846654667301e-22                          62                                         101.25082512842498                 -1.4064946384164404e-12               -1.4065366865103955e-23                   0                            -1.4067846654667301e-22  10                   0                    0                    10                     11                            1                           1                     0.98442311524861204  0.17493400092785097  0.017584808318334123       0                                 0                                   0                                 9.9999999999999994e-12              9.9999999999999991e-11       
                     -1.5474296347592396e-22                          68                                         101.24753739825591                 -1.4064032989182512e-12               -1.4064496929250941e-23                   0                            -1.5474296347592396e-22  10                   0                    0                    10                     12                            2                           1                     0.98116268349532754  0.19221249147649641  0.019342870434490494       0                                 0                                   0                                 9.9999999999999994e-12              1.0999999999999999e-10       
                     -1.6880650355859347e-22                          74                                         101.24393675507125                 -1.4063032694945418e-12               -1.4063540082669509e-23                   0                            -1.6880650355859347e-22  10                   0                    0                    10                     13                            3                           1                     0.97759599458158553  0.20942976643998878  0.021100812944824181       0                                 0                                   0                                 9.9999999999999994e-12              1.2e-10                   
                     -1.8286899990761505e-22                          80                                         101.24002325452545                 -1.4061945526188224e-12               -1.4062496349021598e-23                   0                            -1.8286899990761505e-22  10                   0                    0                    10                     14                            4                           1                     0.97372420644095392  0.2265803456934691   0.02285862498845188       0                                 0                                   0                                 9.9999999999999994e-12              1.2999999999999999e-10       
                     -1.8286899990761505e-22                          81                                         101.24002325452545                 -1.4061945526188224e-12                0                                     0                            -1.8286899990761505e-22  10                   0                    0                    10                     15                            0                           2                     0.97372420644095392  0.2265803456934691   0.02285862498845188       0                                 0                                   0                                 0                                1.2999999999999999e-10       
                     -1.969303656617301e-22                          87                                         101.23579695710337                 -1.4060771509791253e-12               -1.4061365754115041e-23                   0                            -1.969303656617301e-22  10                   0                    0                    10                     16                            1                           2                     0.96954857599321276  0.24365877118454732  0.02461629570771626       0                                 0                                   0                                 9.9999999999999994e-12              1.3999999999999998e-10       
                     -2.1099051398763228e-22                          93                                         101.23125792811798                 -1.405951067477865e-12               -1.4060148325902188e-23                   0                            -2.1099051398763228e-22  10                   0                    0                    10                     17                            2                           2                     0.96507045872019304  0.26065960873826272  0.026373814248454034       0                                 0                                   0                                 9.9999999999999994e-12              1.5e-10                   
                     -2.2504935808211075e-22                          99                                         101.22640623770788                 -1.4058163052316838e-12               -1.4058844094478457e-23                   0                            -2.2504935808211075e-22  10                   0                    0                    10                     18                            3                           2                     0.96029130820838293  0.27757744985382321  0.028131169760263839       0                                 0                                   0                                 9.9999999999999994e-12              1.5999999999999999e-10       
                     -2.2504935808211075e-22                          100                                        101.22640623770788                 -1.4058163052316838e-12                0                                     0                            -2.2504935808211075e-22  10                   0                    0                    10                     19                            0                           3                     0.96029130820838293  0.27757744985382321  0.028131169760263839       0                                 0                                   0                                 0                                1.5999999999999999e-10       
                     -2.3910681117419149e-22                          106                                        101.22124196083466                 -1.4056728675712897e-12               -1.4057453092080742e-23                   0                            -2.3910681117419149e-22  10                   0                    0                    10                     20                            1                           3                     0.9552126756584628   0.29440691349250486  0.029888351396773934       0                                 0                                   0                                 9.9999999999999994e-12              1.6999999999999998e-10       
                     -2.5316278652727721e-22                          112                                        101.21576517728013                 -1.4055207580412809e-12               -1.4055975353085721e-23                   0                            -2.5316278652727721e-22  10                   0                    0                    10                     21                            2                           3                     0.94983620936194113  0.31114264785609735  0.031645348315909649       0                                 0                                   0                                 9.9999999999999994e-12              1.8e-10                   
                     -2.5316278652727721e-22                          113                                        101.21576517728013                 -1.4055207580412809e-12                0                                     0                            -2.5316278652727721e-22  10                   0                    0                    10                     22                            0                           4                     0.94983620936194113  0.31114264785609735  0.031645348315909649       0                                 0                                   0                                 0                                1.8e-10                   
                     -2.6721719744128526e-22                          119                                        101.20997597164325                 -1.40535998039996e-12               -1.4054410914008061e-23                   0                            -2.6721719744128526e-22  10                   0                    0                    10                     23                            1                           4                     0.94416365414507464  0.32777933215528393  0.033402149680160656       0                                 0                                   0                                 9.9999999999999994e-12              1.8999999999999999e-10       
                     -2.6721719744128526e-22                          120                                        101.20997597164325                 -1.40535998039996e-12                0                                     0                            -2.6721719744128526e-22  10                   0                    0                    10                     24                            0                           5                     0.94416365414507464  0.32777933215528393  0.033402149680160656       0                                 0                                   0                                 0                                1.8999999999999999e-10       
# Table End
