# ODT 1.0
# Table Start
# Title: mmArchive Data Table, Wed Jun 16 18:51:04 EDT 2010
# Columns: {Oxs_EulerEvolve:evolver:Total energy} {Oxs_EulerEvolve:evolver:Energy calc count} {Oxs_EulerEvolve:evolver:Max dm/dt} Oxs_EulerEvolve:evolver:dE/dt {Oxs_EulerEvolve:evolver:Delta E} Oxs_UZeeman::Energy  Oxs_UZeeman::B       Oxs_UZeeman::Bx      Oxs_UZeeman::By      Oxs_UZeeman::Bz      Oxs_TimeDriver::Iteration {Oxs_TimeDriver::Stage iteration} Oxs_TimeDriver::Stage Oxs_TimeDriver::mx   Oxs_TimeDriver::my   Oxs_TimeDriver::mz   {Oxs_TimeDriver::Max Spin Ang} {Oxs_TimeDriver::Stage Max Spin Ang} {Oxs_TimeDriver::Run Max Spin Ang} {Oxs_TimeDriver::Last time step} {Oxs_TimeDriver::Simulation time}
# Units:                     J                                        {}                                    deg/ns                             J/s                              J                          J                 mT                   mT                   mT                   mT                        {}                            {}                          {}                   {}                   {}                   {}                        deg                               deg                                 deg                                s                                 s                
                     0                                        1                                       101.26648342765968              -1.4069296969323552e-12             0                           0                    10                   0                    0                    10                     0                             0                           0                     1                    0                    0                         0                                 0                                   0                                 0                                0                         
                    -1.3893339907558253e-25                      2                                       101.26648341238861              -1.4069296965080229e-12            -1.3893339907558253e-25        -1.3893339907558253e-25  10                   0                    0                    10                     1                             1                           0                     0.99999998476912921  0.00017366674884447813  1.7366674884447815e-05       0                                 0                                   0                                 9.8749355774199065e-14              9.8749355774199065e-14       
                    -2.7256601957240638e-25                      3                                       101.26648336888377              -1.4069296952991679e-12            -1.3363262049682385e-25        -2.7256601957240638e-25  10                   0                    0                    10                     2                             2                           0                     0.99999994137878223  0.00034070752192133145  3.407075244655079e-05       0                                 0                                   0                                 9.4981735526073389e-14              1.9373109130027245e-13       
                    -4.0619863797693169e-25                      4                                       101.26648329712296              -1.4069296933051731e-12            -1.3363261840452534e-25        -4.0619863797693169e-25  10                   0                    0                    10                     3                             3                           0                     0.99999986980678934  0.00050774828513485434  5.0774829747116459e-05       0                                 0                                   0                                 9.4981735458915982e-14              2.8871282675918845e-13       
                    -5.3983125436647969e-25                      5                                       101.26648319710613              -1.4069296905260371e-12            -1.3363261638954798e-25        -5.3983125436647969e-25  10                   0                    0                    10                     4                             4                           0                     0.99999977005315188  0.00067478903387421427  6.7478906795809956e-05       0                                 0                                   0                                 9.4981735499720828e-14              3.8369456225890928e-13       
                    -6.7346386870376342e-25                      6                                       101.26648306883328              -1.4069296869617609e-12            -1.3363261433728371e-25        -6.7346386870376342e-25  10                   0                    0                    10                     5                             5                           0                     0.99999964211787318  0.00084182976338531893  8.4182983587970404e-05       0                                 0                                   0                                 9.4981735567028069e-14              4.7867629782593733e-13       
                    -8.070964809514961e-25                      7                                       101.26648291230448              -1.4069296826123448e-12            -1.3363261224773271e-25        -8.070964809514961e-25  10                   0                    0                    10                     6                             6                           0                     0.99999948600095689  0.0010088704689140769  0.00010088706011893699       0                                 0                                   0                                 9.4981735660837716e-14              5.7365803348677501e-13       
                    -9.4072909107239051e-25                      8                                       101.26648272751964              -1.4069296774777878e-12            -1.3363261012089434e-25        -9.4072909107239051e-25  10                   0                    0                    10                     7                             7                           0                     0.99999930170240714  0.0011759111457063966  0.00011759113638404878       0                                 0                                   0                                 9.4981735781149745e-14              6.6863976926792476e-13       
                    -1.0743616990291597e-24                      9                                       101.26648251447881              -1.4069296715580903e-12            -1.3363260795676918e-25        -1.0743616990291597e-24  10                   0                    0                    10                     8                             8                           0                     0.99999908922222924  0.0013429517890081878  0.00013429521237864493       0                                 0                                   0                                 9.4981735927964156e-14              7.6362150519588896e-13       
                    -1.207994304784517e-24                      10                                      101.26648227318202              -1.4069296648532537e-12            -1.3363260575535743e-25        -1.207994304784517e-24  10                   0                    0                    10                     9                             9                           0                     0.99999884856042953  0.0015099923940653617  0.00015099928809806461       0                                 0                                   0                                 9.4981736101280974e-14              8.5860324129716992e-13       
                    -1.207994304784517e-24                      11                                      101.26648227318202              -1.4069296648532537e-12             0                          -1.207994304784517e-24  10                   0                    0                    10                     10                            0                           1                     0.99999884856042953  0.0015099923940653617  0.00015099928809806461       0                                 0                                   0                                 0                                8.5860324129716992e-13       
                    -1.3416269083011752e-24                      12                                      101.26648200362921              -1.4069296573632758e-12            -1.3363260351665807e-25        -1.3416269083011752e-24  10                   0                    0                    10                     11                            1                           1                     0.99999857971701422  0.0016770329561238289  0.00016770336353764688       0                                 0                                   0                                 9.4981736301100161e-14              9.5358497759827013e-13       
                    -1.4752595095418472e-24                      13                                      101.2664817058204               -1.4069296490881577e-12            -1.3363260124067202e-25        -1.4752595095418472e-24  10                   0                    0                    10                     12                            2                           1                     0.99999828269199131  0.001844073470429503  0.00018440743869273086       0                                 0                                   0                                 9.4981736527421742e-14              1.0485667141256918e-12       
                    -1.6088921084692466e-24                      14                                      101.26648137975562              -1.4069296400279004e-12            -1.3363259892739954e-25        -1.6088921084692466e-24  10                   0                    0                    10                     13                            3                           1                     0.99999795748536946  0.0020111139322282982  0.0002011115135586558       0                                 0                                   0                                 9.4981736780245717e-14              1.1435484509059375e-12       
                    -1.7425247050460858e-24                      15                                      101.26648102543484              -1.4069296301825023e-12            -1.336325965768392e-25        -1.7425247050460858e-24  10                   0                    0                    10                     14                            4                           1                     0.9999976040971571   0.0021781543367661296  0.0002178155881307607       0                                 0                                   0                                 9.4981737059572061e-14              1.2385301879655095e-12       
                    -1.7425247050460858e-24                      16                                      101.26648102543484              -1.4069296301825023e-12             0                          -1.7425247050460858e-24  10                   0                    0                    10                     15                            0                           2                     0.9999976040971571   0.0021781543367661296  0.0002178155881307607       0                                 0                                   0                                 0                                1.2385301879655095e-12       
                    -1.876157299235078e-24                      17                                      101.26648064285806              -1.406929619551964e-12            -1.336325941889923e-25        -1.876157299235078e-24  10                   0                    0                    10                     16                            1                           2                     0.99999722252736467  0.0023451946792889143  0.00023451966240438474       0                                 0                                   0                                 9.49817373654008e-14              1.3335119253309104e-12       
                    -2.0097898909989371e-24                      18                                      101.26648023202533              -1.4069296081362866e-12            -1.3363259176385909e-25        -2.0097898909989371e-24  10                   0                    0                    10                     17                            2                           2                     0.99999681277600327  0.0025122349550425723  0.00025122373637486713       0                                 0                                   0                                 9.4981737697731932e-14              1.4284936630286423e-12       
                    -2.1434224803003751e-24                      19                                      101.26647979293658              -1.4069295959354684e-12            -1.3363258930143779e-25        -2.1434224803003751e-24  10                   0                    0                    10                     18                            3                           2                     0.99999637484308379  0.0026792751592730232  0.00026792781003754686       0                                 0                                   0                                 9.4981738056565422e-14              1.5234754010852077e-12       
                    -2.1434224803003751e-24                      20                                      101.26647979293658              -1.4069295959354684e-12             0                          -2.1434224803003751e-24  10                   0                    0                    10                     19                            0                           3                     0.99999637484308379  0.0026792751592730232  0.00026792781003754686       0                                 0                                   0                                 0                                1.5234754010852077e-12       
                    -2.2770550671021049e-24                      21                                      101.26647932559186              -1.4069295829495103e-12            -1.3363258680173007e-25        -2.2770550671021049e-24  10                   0                    0                    10                     20                            1                           3                     0.99999590872861888  0.0028463152872261898  0.00028463188338776309       0                                 0                                   0                                 9.4981738441901305e-14              1.618457139527109e-12       
                    -2.4106876513668413e-24                      22                                      101.26647882999117              -1.4069295691784132e-12            -1.3363258426473614e-25        -2.4106876513668413e-24  10                   0                    0                    10                     21                            2                           3                     0.99999541443262208  0.0030133553341479976  0.00030133595642085513       0                                 0                                   0                                 9.4981738853739583e-14              1.7134388783808487e-12       
                    -2.4106876513668413e-24                      23                                      101.26647882999117              -1.4069295691784132e-12             0                          -2.4106876513668413e-24  10                   0                    0                    10                     22                            0                           4                     0.99999541443262208  0.0030133553341479976  0.00030133595642085513       0                                 0                                   0                                 0                                1.7134388783808487e-12       
                    -2.544320233057295e-24                      24                                      101.26647830613447              -1.4069295546221755e-12            -1.3363258169045391e-25        -2.544320233057295e-24  10                   0                    0                    10                     23                            1                           4                     0.9999948919551066   0.0031803952952843724  0.00031804002913216186       0                                 0                                   0                                 9.498173929208023e-14              1.8084206176729289e-12       
                    -2.544320233057295e-24                      25                                      101.26647830613447              -1.4069295546221755e-12             0                          -2.544320233057295e-24  10                   0                    0                    10                     24                            0                           5                     0.9999948919551066   0.0031803952952843724  0.00031804002913216186       0                                 0                                   0                                 0                                1.8084206176729289e-12       
# Table End
