# ODT 1.0
# Table Start
# Title: mmArchive Data Table, Wed Jun 16 18:51:02 EDT 2010
# Columns: {Oxs_SpinXferEvolve:evolver:Total energy} {Oxs_SpinXferEvolve:evolver:Energy calc count} {Oxs_SpinXferEvolve:evolver:Max dm/dt} Oxs_SpinXferEvolve:evolver:dE/dt {Oxs_SpinXferEvolve:evolver:Delta E} {Oxs_SpinXferEvolve:evolver:average J} Oxs_UZeeman::Energy  Oxs_UZeeman::B       Oxs_UZeeman::Bx      Oxs_UZeeman::By      Oxs_UZeeman::Bz      Oxs_TimeDriver::Iteration {Oxs_TimeDriver::Stage iteration} Oxs_TimeDriver::Stage Oxs_TimeDriver::mx   Oxs_TimeDriver::my   Oxs_TimeDriver::mz   {Oxs_TimeDriver::Max Spin Ang} {Oxs_TimeDriver::Stage Max Spin Ang} {Oxs_TimeDriver::Run Max Spin Ang} {Oxs_TimeDriver::Last time step} {Oxs_TimeDriver::Simulation time}
# Units:                       J                                           {}                                       deg/ns                               J/s                                 J                                   A/m^2                           J                 mT                   mT                   mT                   mT                        {}                            {}                          {}                   {}                   {}                   {}                        deg                               deg                                 deg                                s                                 s                
                      0                                            1                                          101.26648342765968                 -1.4069296969323552e-12                0                                     0                             0                    10                   0                    0                    10                     0                             0                           0                     1                    0                    0                         0                                 0                                   0                                 0                                0                         
                     -1.3198673112010088e-25                          7                                          101.26648341387755                 -1.4069296965493954e-12               -1.3198673112010088e-25                   0                            -1.3198673112010088e-25  10                   0                    0                    10                     1                             1                           0                     0.999999986254139    0.0001649834131441797  1.6498341390012607e-05       0                                 0                                   0                                 9.3811887985489106e-14              9.3811887985489106e-14       
                     -6.5993365416345793e-25                          13                                         101.26648308310646                 -1.4069296873583651e-12               -5.2794692304335707e-25                   0                            -6.5993365416345793e-25  10                   0                    0                    10                     2                             2                           0                     0.99999965635349375  0.0008249169732110304  8.2491706770432225e-05       0                                 0                                   0                                 3.7524755194195643e-13              4.6905943992744552e-13       
                     -2.0668633066058453e-24                          19                                         101.26648004795092                 -1.4069296030214702e-12               -1.4069296524423873e-24                   0                            -2.0668633066058453e-24  10                   0                    0                    10                     3                             3                           0                     0.99999662918684418  0.002583576230335758  0.0002583579133257306       0                                 0                                   0                                 9.9999999999999998e-13              1.4690594399274456e-12       
                     -3.4737928311965248e-24                          25                                         101.26647388073252                 -1.4069294316549554e-12               -1.4069295245906799e-24                   0                            -3.4737928311965248e-24  10                   0                    0                    10                     4                             4                           0                     0.99999047821060572  0.0043422272570179899  0.00043422410389956558       0                                 0                                   0                                 9.9999999999999998e-13              2.4690594399274456e-12       
                     -4.880722140905897e-24                          31                                         101.26646458145221                 -1.4069291732588632e-12               -1.406929309709372e-24                   0                            -4.880722140905897e-24  10                   0                    0                    10                     5                             5                           0                     0.99998120344475416  0.0061008644507626079  0.000610090267613237       0                                 0                                   0                                 9.9999999999999998e-13              3.4690594399274454e-12       
                     -6.2876511487044137e-24                          37                                         101.26645215011143                 -1.4069288278332575e-12               -1.4069290077985167e-24                   0                            -6.2876511487044137e-24  10                   0                    0                    10                     6                             6                           0                     0.99996880491940943  0.0078594822091202915  0.00078595639358805156       0                                 0                                   0                                 9.9999999999999998e-13              4.4690594399274451e-12       
                     -7.6945797675626028e-24                          43                                         101.2664365867121                  -1.4069283953782235e-12               -1.4069286188581888e-24                   0                            -7.6945797675626028e-24  10                   0                    0                    10                     7                             7                           0                     0.99995328267483619  0.0096180749297060612  0.00096182247094532514       0                                 0                                   0                                 9.9999999999999998e-13              5.4690594399274457e-12       
                     -9.1015079104510878e-24                          49                                         101.26641789125662                 -1.4069278758938685e-12               -1.4069281428884847e-24                   0                            -9.1015079104510878e-24  10                   0                    0                    10                     8                             8                           0                     0.99993463676144356  0.011376637010217825  0.0011376884888063858       0                                 0                                   0                                 9.9999999999999998e-13              6.4690594399274455e-12       
                     -1.0508435490340609e-23                          55                                         101.26639606374789                 -1.4069272693803211e-12               -1.4069275798895217e-24                   0                            -1.0508435490340609e-23  10                   0                    0                    10                     9                             9                           0                     0.99991286723978479  0.013135162848454935  0.0013135544362925758       0                                 0                                   0                                 9.9999999999999998e-13              7.4690594399274453e-12       
                     -1.0508435490340609e-23                          56                                         101.26639606374789                 -1.4069272693803211e-12                0                                     0                            -1.0508435490340609e-23  10                   0                    0                    10                     10                            0                           1                     0.99991286723978479  0.013135162848454935  0.0013135544362925758       0                                 0                                   0                                 0                                7.4690594399274453e-12       
                     -1.0640422104733695e-23                          62                                         101.26639385537229                 -1.406927208016948e-12               -1.3198661439308563e-25                   0                            -1.0640422104733695e-23  10                   0                    0                    10                     11                            1                           1                     0.99991066473967705  0.013300131559671913  0.0013300527630917115       0                                 0                                   0                                 9.3811968918294317e-14              7.5628714088457395e-12       
                     -1.1168368503662069e-23                          68                                         101.26638474622808                 -1.4069269549043058e-12               -5.2794639892837403e-25                   0                            -1.1168368503662069e-23  10                   0                    0                    10                     12                            2                           1                     0.99990157984772476  0.013960002629447407  0.0013960460629577583       0                                 0                                   0                                 3.7524787567317727e-13              7.9381192845189163e-12       
                     -1.25752950986366e-23                          74                                         101.26635831755195                 -1.4069262205399445e-12               -1.4069265949745317e-24                   0                            -1.25752950986366e-23  10                   0                    0                    10                     13                            3                           1                     0.99987522168968457  0.015718465065728545  0.0015719118873295749       0                                 0                                   0                                 9.9999999999999998e-13              8.9381192845189177e-12       
                     -1.3982220915732363e-23                          80                                         101.26632875683178                 -1.4069253991468003e-12               -1.4069258170957629e-24                   0                            -1.3982220915732363e-23  10                   0                    0                    10                     14                            4                           1                     0.99984574011633054  0.017476877428119098  0.0017477776144665452       0                                 0                                   0                                 9.9999999999999998e-13              9.9381192845189175e-12       
                     -1.3982220915732363e-23                          81                                         101.26632875683178                 -1.4069253991468003e-12                0                                     0                            -1.3982220915732363e-23  10                   0                    0                    10                     15                            0                           2                     0.99984574011633054  0.017476877428119098  0.0017477776144665452       0                                 0                                   0                                 0                                9.9381192845189175e-12       
                     -1.4114207441454728e-23                          87                                         101.26632582298694                 -1.4069253176251174e-12               -1.319865257223641e-25                   0                            -1.4114207441454728e-23  10                   0                    0                    10                     16                            1                           2                     0.99984281414231158  0.017641834893946308  0.0017642759301818407       0                                 0                                   0                                 9.3812031270651714e-14              1.0031931315789569e-11       
                     -1.464215346678926e-23                          93                                         101.26631381196636                 -1.4069249838792684e-12               -5.2794602533453362e-25                   0                            -1.464215346678926e-23  10                   0                    0                    10                     17                            2                           2                     0.99983083537394746  0.018301659764918397  0.0018302691833486575       0                                 0                                   0                                 3.7524812508260686e-13              1.0407179440872175e-11       
                     -1.6049077983299249e-23                          99                                         101.26627965009351                 -1.4069240346359814e-12               -1.4069245165099888e-24                   0                            -1.6049077983299249e-23  10                   0                    0                    10                     18                            3                           2                     0.99979676549211838  0.020059988406556685  0.0020061347479124057       0                                 0                                   0                                 9.9999999999999998e-13              1.1407179440872176e-11       
                     -1.6049077983299249e-23                          100                                        101.26627965009351                 -1.4069240346359814e-12                0                                     0                            -1.6049077983299249e-23  10                   0                    0                    10                     19                            0                           3                     0.99979676549211838  0.020059988406556685  0.0020061347479124057       0                                 0                                   0                                 0                                1.1407179440872176e-11       
                     -1.6181064444455245e-23                          106                                        101.26627628460393                 -1.4069239411203885e-12               -1.3198646115599409e-25                   0                            -1.6181064444455245e-23  10                   0                    0                    10                     20                            1                           3                     0.99979340908585612  0.020224937676158652  0.0020226330555569052       0                                 0                                   0                                 9.3812076762624778e-14              1.15009915176348e-11       
                     -1.6709010200272525e-23                          112                                        101.26626254700481                 -1.406923559398921e-12               -5.279457558172829e-25                   0                            -1.6709010200272525e-23  10                   0                    0                    10                     21                            2                           3                     0.99977970860249576  0.020884729038028099  0.0020886262750340655       0                                 0                                   0                                 3.7524830705049911e-13              1.18762398246853e-11       
                     -1.6709010200272525e-23                          113                                        101.26626254700481                 -1.406923559398921e-12                0                                     0                            -1.6709010200272525e-23  10                   0                    0                    10                     22                            0                           4                     0.99977970860249576  0.020884729038028099  0.0020886262750340655       0                                 0                                   0                                 0                                1.18762398246853e-11       
                     -1.6840996638957402e-23                          119                                        101.26625904369425                 -1.4069234620537647e-12               -1.31986438684874e-25                   0                            -1.6840996638957402e-23  10                   0                    0                    10                     23                            1                           4                     0.99977621476697498  0.021049675454096597  0.0021051245798696747       0                                 0                                   0                                 9.3812092606759139e-14              1.1970051917292058e-11       
                     -1.6840996638957402e-23                          120                                        101.26625904369425                 -1.4069234620537647e-12                0                                     0                            -1.6840996638957402e-23  10                   0                    0                    10                     24                            0                           5                     0.99977621476697498  0.021049675454096597  0.0021051245798696747       0                                 0                                   0                                 0                                1.1970051917292058e-11       
# Table End
