# ODT 1.0
# Table Start
# Title: mmArchive Data Table, Wed Jun 16 18:51:06 EDT 2010
# Columns: {Oxs_RungeKuttaEvolve:evolve:Total energy} {Oxs_RungeKuttaEvolve:evolve:Energy calc count} {Oxs_RungeKuttaEvolve:evolve:Max dm/dt} Oxs_RungeKuttaEvolve:evolve:dE/dt {Oxs_RungeKuttaEvolve:evolve:Delta E} Oxs_FixedZeeman::Energy Oxs_TimeDriver::Iteration {Oxs_TimeDriver::Stage iteration} Oxs_TimeDriver::Stage Oxs_TimeDriver::mx   Oxs_TimeDriver::my   Oxs_TimeDriver::mz   {Oxs_TimeDriver::Max Spin Ang} {Oxs_TimeDriver::Stage Max Spin Ang} {Oxs_TimeDriver::Run Max Spin Ang} {Oxs_TimeDriver::Last time step} {Oxs_TimeDriver::Simulation time}
# Units:                       J                                            {}                                        deg/ns                                 J/s                                  J                              J                       {}                            {}                          {}                   {}                   {}                   {}                        deg                               deg                                 deg                                s                                 s                
                      -6.3984005997499996e-19                          1                                           22.531552915500001                  -1.12504029209e-13                   0                             -6.3984005997499996e-19      0                             0                           0                     0.99975009371099999  0.019995001874199999  0.0099975009371100002       0                                 0                                   0                                 0                                0                         
                      -6.3984010740299998e-19                          7                                           22.528212364800002                  -1.12470671761e-13                  -4.7428147797399997e-26           -6.3984010740299998e-19      1                             1                           0                     0.99975016781699999  0.0199173634015      0.0101439925148           0                                 0                                   0                                 4.2163094730500001e-13              4.2163094730500001e-13       
                      -6.3984029697499997e-19                          13                                          22.514855111399999                  -1.12337340819e-13                  -1.8957200838999999e-25           -6.3984029697499997e-19      2                             2                           0                     0.99975046402400003  0.019596131414899999  0.010723866745199999       0                                 0                                   0                                 1.68652378922e-12                2.1081547365200002e-12       
                      -6.39841053018e-19                            19                                          22.461505235299999                  -1.1180559565400001e-13                -7.56042990753e-25             -6.39841053018e-19        3                             3                           0                     0.99975164534100003  0.018145890409800001  0.0129373219584           0                                 0                                   0                                 6.7460951568800002e-12              8.8542498933999999e-12       
                      -6.3984404003899997e-19                          25                                          22.249475628100001                  -1.09704738459e-13                  -2.9870205089800001e-24           -6.3984404003899997e-19      4                             4                           0                     0.99975631255999997  0.010131872548199999  0.019612767634000002       0                                 0                                   0                                 2.69843806275e-11                3.5838630520900001e-11       
                      -6.3984558586500004e-19                          31                                          22.138949484299999                  -1.08617510578e-13                  -1.54582638019e-24             -6.3984558586500004e-19      5                             5                           0                     0.999758727914       0.0049599958266000003  0.021398233593199999       0                                 0                                   0                                 1.4161369479100001e-11              5.0000000000000002e-11       
# Table End
