# ODT 1.0
# Table Start
# Title: mmArchive Data Table, Wed Jun 16 18:51:06 EDT 2010
# Columns: {Oxs_RungeKuttaEvolve:evolve:Total energy} {Oxs_RungeKuttaEvolve:evolve:Energy calc count} {Oxs_RungeKuttaEvolve:evolve:Max dm/dt} Oxs_RungeKuttaEvolve:evolve:dE/dt {Oxs_RungeKuttaEvolve:evolve:Delta E} Oxs_FixedZeeman::Energy Oxs_TimeDriver::Iteration {Oxs_TimeDriver::Stage iteration} Oxs_TimeDriver::Stage Oxs_TimeDriver::mx   Oxs_TimeDriver::my   Oxs_TimeDriver::mz   {Oxs_TimeDriver::Max Spin Ang} {Oxs_TimeDriver::Stage Max Spin Ang} {Oxs_TimeDriver::Run Max Spin Ang} {Oxs_TimeDriver::Last time step} {Oxs_TimeDriver::Simulation time}
# Units:                       J                                            {}                                        deg/ns                                 J/s                                  J                              J                       {}                            {}                          {}                   {}                   {}                   {}                        deg                               deg                                 deg                                s                                 s                
                      -6.3979999999999996e-19                          1                                           22.530000000000001                  -1.125e-13                           0                             -6.3979999999999996e-19      0                             0                           0                     0.99980000000000002  0.02                 0.0099979999999999999       0                                 0                                   0                                 0                                0                         
                      -6.3979999999999996e-19                          7                                           22.530000000000001                  -1.125e-13                          -4.743e-26                     -6.3979999999999996e-19      1                             1                           0                     0.99980000000000002  0.01992              0.01014                   0                                 0                                   0                                 4.2159999999999999e-13              4.2159999999999999e-13       
                      -6.3979999999999996e-19                          13                                          22.510000000000002                  -1.123e-13                          -1.8959999999999999e-25           -6.3979999999999996e-19      2                             2                           0                     0.99980000000000002  0.019599999999999999  0.01072                   0                                 0                                   0                                 1.687e-12                        2.1079999999999999e-12       
                      -6.3979999999999996e-19                          19                                          22.460000000000001                  -1.118e-13                          -7.5599999999999997e-25           -6.3979999999999996e-19      3                             3                           0                     0.99980000000000002  0.018149999999999999  0.01294                   0                                 0                                   0                                 6.7459999999999997e-12              8.8539999999999992e-12       
                      -6.3979999999999996e-19                          25                                          22.25                               -1.097e-13                          -2.9870000000000002e-24           -6.3979999999999996e-19      4                             4                           0                     0.99980000000000002  0.01013              0.019609999999999999       0                                 0                                   0                                 2.698e-11                        3.5840000000000002e-11       
                      -6.3979999999999996e-19                          31                                          22.140000000000001                  -1.086e-13                          -1.546e-24                     -6.3979999999999996e-19      5                             5                           0                     0.99980000000000002  0.00496              0.021399999999999999       0                                 0                                   0                                 1.4159999999999999e-11              5.0000000000000002e-11       
# Table End
