# ODT 1.0
# Table Start
# Title: mmArchive Data Table, Wed Jun 16 18:51:08 EDT 2010
# Columns: {Oxs_CGEvolve:evolve:Max mxHxm} {Oxs_CGEvolve:evolve:Total energy} {Oxs_CGEvolve:evolve:Delta E} {Oxs_CGEvolve:evolve:Bracket count} {Oxs_CGEvolve:evolve:Line min count} {Oxs_CGEvolve:evolve:Cycle count} {Oxs_CGEvolve:evolve:Cycle sub count} {Oxs_CGEvolve:evolve:Energy calc count} Oxs_FixedZeeman::Energy Oxs_MinDriver::Iteration {Oxs_MinDriver::Stage iteration} Oxs_MinDriver::Stage Oxs_MinDriver::mx    Oxs_MinDriver::my    Oxs_MinDriver::mz    {Oxs_MinDriver::Max Spin Ang} {Oxs_MinDriver::Stage Max Spin Ang} {Oxs_MinDriver::Run Max Spin Ang}
# Units:                 A/m                               J                                J                               {}                                   {}                                 {}                                  {}                                     {}                               J                       {}                           {}                         {}                 {}                   {}                   {}                         deg                              deg                                deg               
                 1778.9616736999999               -6.3984005997499996e-19            -6.3984005997499996e-19              0                                    0                                  1                                   1                                      1                              -6.3984005997499996e-19      0                            0                          0                    0.99975009371099999  0.019995001874199999  0.0099975009371100002      0                                0                                  0                         
                 1709.5339153                     -6.3985230177899996e-19            -1.22418039479e-23                1                                    0                                  1                                   1                                      2                              -6.3985230177899996e-19      1                            1                          0                    0.99976922153000003  0.0192146544502      0.0096073272251100007      0                                0                                  0                         
                 1223.51499801                    -6.3992434912299997e-19            -7.2047343591899999e-23              2                                    0                                  1                                   1                                      3                              -6.3992434912299997e-19      2                            2                          0                    0.99988179550400003  0.0137519458907      0.0068759729453499998      0                                0                                  0                         
                 0.11939207840799999              -6.3999999999900002e-19            -7.5650876729000003e-23              3                                    1                                  1                                   1                                      5                              -6.3999999999900002e-19      3                            3                          0                    0.99999999999900002  1.3419315698699999e-06  6.7096578493400003e-07      0                                0                                  0                         
                 1.1326452421899999e-07              -6.3999999999999996e-19            -7.2031209321199996e-31              3                                    3                                  1                                   1                                      7                              -6.3999999999999996e-19      4                            4                          0                    1                   -1.27305967718e-12   -6.3652983859099996e-13      0                                0                                  0                         
                 1.7085156831500001e-06              -6.3999999999999996e-19             0                                3                                    4                                  1                                   1                                      8                              -6.3999999999999996e-19      5                            5                          0                    1                    1.9203209822700001e-11  9.6016049113599995e-12      0                                0                                  0                         
                 1.62938906099e-12                -6.3999999999999996e-19             0                                3                                    5                                  1                                   1                                      9                              -6.3999999999999996e-19      6                            6                          0                    1                    1.83138500452e-17    9.1569250225799997e-18      0                                0                                  0                         
                 1.6031518106300001e-11              -6.3999999999999996e-19             0                                3                                    6                                  1                                   1                                      10                             -6.3999999999999996e-19      7                            7                          0                    1                   -1.80189511286e-16   -9.0094755643000001e-17      0                                0                                  0                         
                 0.0010596383822999999              -6.3999999999999996e-19             0                                4                                    7                                  2                                   0                                      12                             -6.3999999999999996e-19      8                            8                          0                    1                    1.1910021308e-08     5.9550106540199996e-09      0                                0                                  0                         
                 1.63823021799e-12                -6.3999999999999996e-19            -5.6705847483700003e-35              4                                    8                                  2                                   0                                      13                             -6.3999999999999996e-19      9                            9                          0                    1                    1.8413222029000001e-17  9.2066110145199996e-18      0                                0                                  0                         
                 7.1966438971900002e-12              -6.3999999999999996e-19             0                                4                                    9                                  2                                   0                                      14                             -6.3999999999999996e-19      10                           10                         0                    1                   -8.0888144100899994e-17 -4.0444072050400003e-17      0                                0                                  0                         
# Table End
