# ODT 1.0
# Table Start
# Title: mmArchive Data Table, Wed Jun 16 18:51:08 EDT 2010
# Columns: {Oxs_CGEvolve:evolve:Max mxHxm} {Oxs_CGEvolve:evolve:Total energy} {Oxs_CGEvolve:evolve:Delta E} {Oxs_CGEvolve:evolve:Bracket count} {Oxs_CGEvolve:evolve:Line min count} {Oxs_CGEvolve:evolve:Cycle count} {Oxs_CGEvolve:evolve:Cycle sub count} {Oxs_CGEvolve:evolve:Energy calc count} Oxs_FixedZeeman::Energy Oxs_MinDriver::Iteration {Oxs_MinDriver::Stage iteration} Oxs_MinDriver::Stage Oxs_MinDriver::mx    Oxs_MinDriver::my    Oxs_MinDriver::mz    {Oxs_MinDriver::Max Spin Ang} {Oxs_MinDriver::Stage Max Spin Ang} {Oxs_MinDriver::Run Max Spin Ang}
# Units:                 A/m                               J                                J                               {}                                   {}                                 {}                                  {}                                     {}                               J                       {}                           {}                         {}                 {}                   {}                   {}                         deg                              deg                                deg               
                 1779                             -6.3979999999999996e-19            -6.3979999999999996e-19              0                                    0                                  1                                   1                                      1                              -6.3979999999999996e-19      0                            0                          0                    0.99980000000000002  0.02                 0.0099979999999999999      0                                0                                  0                         
                 1710                             -6.3989999999999996e-19            -1.2240000000000001e-23              1                                    0                                  1                                   1                                      2                              -6.3989999999999996e-19      1                            1                          0                    0.99980000000000002  0.019210000000000001  0.0096069999999999992      0                                0                                  0                         
                 1224                             -6.3989999999999996e-19            -7.2049999999999999e-23              2                                    0                                  1                                   1                                      3                              -6.3989999999999996e-19      2                            2                          0                    0.99990000000000001  0.01375              0.0068760000000000002      0                                0                                  0                         
                 0.11940000000000001              -6.3999999999999996e-19            -7.5650000000000004e-23              3                                    1                                  1                                   1                                      5                              -6.3999999999999996e-19      3                            3                          0                    1                    1.342e-06            6.7100000000000001e-07      0                                0                                  0                         
                 1.133e-07                        -6.3999999999999996e-19            -7.2029999999999998e-31              3                                    3                                  1                                   1                                      7                              -6.3999999999999996e-19      4                            4                          0                    1                   -1.2729999999999999e-12 -6.3649999999999996e-13      0                                0                                  0                         
                 1.7090000000000001e-06              -6.3999999999999996e-19             0                                3                                    4                                  1                                   1                                      8                              -6.3999999999999996e-19      5                            5                          0                    1                    1.9199999999999999e-11  9.6020000000000005e-12      0                                0                                  0                         
                 1.629e-12                        -6.3999999999999996e-19             0                                3                                    5                                  1                                   1                                      9                              -6.3999999999999996e-19      6                            6                          0                    1                    1.8309999999999999e-17  9.1569999999999999e-18      0                                0                                  0                         
                 1.6029999999999999e-11              -6.3999999999999996e-19             0                                3                                    6                                  1                                   1                                      10                             -6.3999999999999996e-19      7                            7                          0                    1                   -1.802e-16           -9.0090000000000001e-17      0                                0                                  0                         
                 0.00106                          -6.3999999999999996e-19             0                                4                                    7                                  2                                   0                                      12                             -6.3999999999999996e-19      8                            8                          0                    1                    1.191e-08            5.9550000000000002e-09      0                                0                                  0                         
                 1.6380000000000001e-12              -6.3999999999999996e-19            -5.6709999999999997e-35              4                                    8                                  2                                   0                                      13                             -6.3999999999999996e-19      9                            9                          0                    1                    1.841e-17            9.2070000000000004e-18      0                                0                                  0                         
                 7.1970000000000001e-12              -6.3999999999999996e-19             0                                4                                    9                                  2                                   0                                      14                             -6.3999999999999996e-19      10                           10                         0                    1                   -8.0889999999999994e-17 -4.0439999999999997e-17      0                                0                                  0                         
# Table End
