# OOMMF OVF 2.0
#
# Segment count: 1
#
# Begin: Segment
# Begin: Header
#
# title: Oxs_CGEvolve:evolve:Total energy density
# meshtype: rectangular
# meshunit: m
# xmin: 0
# ymin: 0
# zmin: 0
# xmax: 2e-08
# ymax: 2e-08
# zmax: 2e-08
# valuedim: 1
# valuelabels: {Total energy density}
# valueunits: J/m^3
# desc: Oxs scalar field output
# desc:  MIF source file: /home/donahue/tmp/yyy/oommf/app/oxs/regression_tests/bug_tests/ovfout.mif
# desc:  Iteration: 10, State id: 39
# desc:  Stage: 0, Stage iteration: 10
# desc:  Stage simulation time: -1 s
# desc:  Total simulation time: -2 s
# xbase: 2.5000000000000001e-09
# ybase: 2.5000000000000001e-09
# zbase: 2.5000000000000001e-09
# xnodes: 4
# ynodes: 4
# znodes: 4
# xstepsize: 5.0000000000000001e-09
# ystepsize: 5.0000000000000001e-09
# zstepsize: 5.0000000000000001e-09
#
# End: Header
#
# Begin: Data Text
   -8.000e+04
   -8.000e+04
   -8.000e+04
   -8.000e+04
   -8.000e+04
   -8.000e+04
   -8.000e+04
   -8.000e+04
   -8.000e+04
   -8.000e+04
   -8.000e+04
   -8.000e+04
   -8.000e+04
   -8.000e+04
   -8.000e+04
   -8.000e+04
   -8.000e+04
   -8.000e+04
   -8.000e+04
   -8.000e+04
   -8.000e+04
   -8.000e+04
   -8.000e+04
   -8.000e+04
   -8.000e+04
   -8.000e+04
   -8.000e+04
   -8.000e+04
   -8.000e+04
   -8.000e+04
   -8.000e+04
   -8.000e+04
   -8.000e+04
   -8.000e+04
   -8.000e+04
   -8.000e+04
   -8.000e+04
   -8.000e+04
   -8.000e+04
   -8.000e+04
   -8.000e+04
   -8.000e+04
   -8.000e+04
   -8.000e+04
   -8.000e+04
   -8.000e+04
   -8.000e+04
   -8.000e+04
   -8.000e+04
   -8.000e+04
   -8.000e+04
   -8.000e+04
   -8.000e+04
   -8.000e+04
   -8.000e+04
   -8.000e+04
   -8.000e+04
   -8.000e+04
   -8.000e+04
   -8.000e+04
   -8.000e+04
   -8.000e+04
   -8.000e+04
   -8.000e+04
# End: Data Text
# End: Segment
