# ODT 1.0
# Table Start
# Title: mmArchive Data Table, Wed Jun 16 18:51:07 EDT 2010
# Columns: {Oxs_CGEvolve:evolve:Max mxHxm} {Oxs_CGEvolve:evolve:Total energy} {Oxs_CGEvolve:evolve:Delta E} {Oxs_CGEvolve:evolve:Bracket count} {Oxs_CGEvolve:evolve:Line min count} {Oxs_CGEvolve:evolve:Cycle count} {Oxs_CGEvolve:evolve:Cycle sub count} {Oxs_CGEvolve:evolve:Energy calc count} Oxs_FixedZeeman::Energy Oxs_MinDriver::Iteration {Oxs_MinDriver::Stage iteration} Oxs_MinDriver::Stage Oxs_MinDriver::mx    Oxs_MinDriver::my    Oxs_MinDriver::mz    {Oxs_MinDriver::Max Spin Ang} {Oxs_MinDriver::Stage Max Spin Ang} {Oxs_MinDriver::Run Max Spin Ang}
# Units:                 A/m                               J                                J                               {}                                   {}                                 {}                                  {}                                     {}                               J                       {}                           {}                         {}                 {}                   {}                   {}                         deg                              deg                                deg               
                 1778.9616737031756               -6.3984005997501104e-19            -6.3984005997501104e-19              0                                    0                                  1                                   1                                      1                              -6.3984005997501104e-19      0                            0                          0                    0.99975009371095458  0.019995001874219091  0.0099975009371095457      0                                0                                  0                         
                 1709.5339152957447               -6.3985230177895884e-19            -1.2241803947863052e-23              1                                    0                                  1                                   1                                      2                              -6.3985230177895884e-19      1                            1                          0                    0.99976922152962311  0.019214654450213243  0.0096073272251066214      0                                0                                  0                         
                 1223.5149980131                  -6.3992434912255084e-19            -7.2047343591913447e-23              2                                    0                                  1                                   1                                      3                              -6.3992434912255084e-19      2                            2                          0                    0.99988179550398548  0.013751945890706704  0.0068759729453533522      0                                0                                  0                         
                 0.11939207840771279              -6.3999999999927976e-19            -7.5650876728978868e-23              3                                    1                                  1                                   1                                      5                              -6.3999999999927976e-19      3                            3                          0                    0.99999999999887457  1.3419315698689123e-06  6.7096578493445616e-07      0                                0                                  0                         
                 1.1326452421914272e-07              -6.4000000000000006e-19            -7.2031209321213221e-31              3                                    3                                  1                                   1                                      7                              -6.4000000000000006e-19      4                            4                          0                    1                   -1.2730596771823244e-12 -6.3652983859116222e-13      0                                0                                  0                         
                 1.7085156831496191e-06              -6.4000000000000006e-19             0                                3                                    4                                  1                                   1                                      8                              -6.4000000000000006e-19      5                            5                          0                    1                    1.9203209822725686e-11  9.601604911362843e-12      0                                0                                  0                         
                 1.6293890609886575e-12              -6.4000000000000006e-19             0                                3                                    5                                  1                                   1                                      9                              -6.4000000000000006e-19      6                            6                          0                    1                    1.831385004516758e-17  9.1569250225837899e-18      0                                0                                  0                         
                 1.6031518106250593e-11              -6.4000000000000006e-19             0                                3                                    6                                  1                                   1                                      10                             -6.4000000000000006e-19      7                            7                          0                    1                   -1.8018951128597644e-16 -9.0094755642988218e-17      0                                0                                  0                         
                 0.0010596383822957024              -6.4000000000000006e-19             0                                4                                    7                                  2                                   0                                      12                             -6.4000000000000006e-19      8                            8                          0                    1                    1.1910021308043224e-08  5.9550106540216118e-09      0                                0                                  0                         
                 1.6382302179868232e-12              -6.4000000000000016e-19            -5.6705847483667149e-35              4                                    8                                  2                                   0                                      13                             -6.4000000000000016e-19      9                            9                          0                    1                    1.8413222029039833e-17  9.2066110145199164e-18      0                                0                                  0                         
                 7.1966438971896108e-12              -6.4000000000000016e-19             0                                4                                    9                                  2                                   0                                      14                             -6.4000000000000016e-19      10                           10                         0                    1                   -8.088814410085106e-17 -4.044407205042553e-17      0                                0                                  0                         
# Table End
