# ODT 1.0
# Table Start
# Title: mmArchive Data Table, Wed Jun 16 18:51:05 EDT 2010
# Columns: {Oxs_RungeKuttaEvolve:evolve:Total energy} {Oxs_RungeKuttaEvolve:evolve:Energy calc count} {Oxs_RungeKuttaEvolve:evolve:Max dm/dt} Oxs_RungeKuttaEvolve:evolve:dE/dt {Oxs_RungeKuttaEvolve:evolve:Delta E} Oxs_FixedZeeman::Energy Oxs_TimeDriver::Iteration {Oxs_TimeDriver::Stage iteration} Oxs_TimeDriver::Stage Oxs_TimeDriver::mx   Oxs_TimeDriver::my   Oxs_TimeDriver::mz   {Oxs_TimeDriver::Max Spin Ang} {Oxs_TimeDriver::Stage Max Spin Ang} {Oxs_TimeDriver::Run Max Spin Ang} {Oxs_TimeDriver::Last time step} {Oxs_TimeDriver::Simulation time}
# Units:                       J                                            {}                                        deg/ns                                 J/s                                  J                              J                       {}                            {}                          {}                   {}                   {}                   {}                        deg                               deg                                 deg                                s                                 s                
                      -6.3984005997501104e-19                          1                                           22.531552915477082                  -1.1250402920928362e-13                 0                             -6.3984005997501104e-19      0                             0                           0                     0.99975009371095458  0.019995001874219091  0.0099975009371095457       0                                 0                                   0                                 0                                0                         
                      -6.3984010740315877e-19                          7                                           22.528212364760797                  -1.1247067176102941e-13                -4.7428147797425372e-26           -6.3984010740315877e-19      1                             1                           0                     0.99975016781743553  0.019917363401529858  0.010143992514829798       0                                 0                                   0                                 4.2163094730476312e-13              4.2163094730476312e-13       
                      -6.3984029697516723e-19                          13                                          22.514855111428634                  -1.1233734081891916e-13                -1.8957200839006699e-25           -6.3984029697516723e-19      2                             2                           0                     0.9997504640236986   0.019596131414945171  0.010723866745151732       0                                 0                                   0                                 1.6865237892190525e-12              2.1081547365238158e-12       
                      -6.3984105301815793e-19                          19                                          22.461505235325006                  -1.1180559565443161e-13                -7.5604299075330554e-25           -6.3984105301815793e-19      3                             3                           0                     0.99975164534087169  0.018145890409820731  0.012937321958377284       0                                 0                                   0                                 6.74609515687621e-12              8.8542498934000258e-12       
                      -6.3984404003866697e-19                          25                                          22.249475628092405                  -1.0970473845850656e-13                -2.9870205089849937e-24           -6.3984404003866697e-19      4                             4                           0                     0.99975631256041697  0.010131872548150038  0.019612767634015878       0                                 0                                   0                                 2.698438062750484e-11              3.5838630520904867e-11       
                      -6.3984558586504713e-19                          31                                          22.138949484301275                  -1.086175105777229e-13                -1.5458263801878615e-24           -6.3984558586504713e-19      5                             5                           0                     0.999758727914136    0.0049599958265993714  0.021398233593188952       0                                 0                                   0                                 1.4161369479095134e-11              5.0000000000000002e-11       
# Table End
