# ODT 1.0
# Table Start
# Title: mmArchive Data Table, Wed Jun 16 18:51:13 EDT 2010
# Columns: {Oxs_RungeKuttaEvolve:evolve:Total energy} {Oxs_RungeKuttaEvolve:evolve:Energy calc count} {Oxs_RungeKuttaEvolve:evolve:Max dm/dt} Oxs_RungeKuttaEvolve:evolve:dE/dt {Oxs_RungeKuttaEvolve:evolve:Delta E} Oxs_ScriptUZeeman::Energy Oxs_ScriptUZeeman::B Oxs_ScriptUZeeman::Bx Oxs_ScriptUZeeman::By Oxs_ScriptUZeeman::Bz Oxs_UZeeman::Energy  Oxs_UZeeman::B       Oxs_UZeeman::Bx      Oxs_UZeeman::By      Oxs_UZeeman::Bz      Oxs_TimeDriver::Iteration {Oxs_TimeDriver::Stage iteration} Oxs_TimeDriver::Stage Oxs_TimeDriver::mx   Oxs_TimeDriver::my   Oxs_TimeDriver::mz   {Oxs_TimeDriver::Max Spin Ang} {Oxs_TimeDriver::Stage Max Spin Ang} {Oxs_TimeDriver::Run Max Spin Ang} {Oxs_TimeDriver::Last time step} {Oxs_TimeDriver::Simulation time}
# Units:                       J                                            {}                                        deg/ns                                 J/s                                  J                               J                      mT                   mT                    mT                    mT                    J                 mT                   mT                   mT                   mT                        {}                            {}                          {}                   {}                   {}                   {}                        deg                               deg                                 deg                                s                                 s                
                      -1.279680119950022e-22                          1                                           10.07692059977275                    1.7486947825997281e-14                 0                              -1.279680119950022e-22     1                    0                     1                     0                     0                    0                    0                    0                    0                      0                             0                           0                     0.99975009371095458  0.019995001874219091  0.0099975009371095457       0                                 0                                   0                                 0                                0                         
                      -1.277477788732777e-22                          3                                           10.037548811665044                   1.7750179606256831e-14                 2.2023312172450152e-25            -1.277477788732777e-22     0.99609375000000011  0                     0.99609375000000011   0                     0                    0                    0                    0                    0                      1                             1                           0                     0.99976874495192503  0.020038867274239636  0.0078038718350700404       0                                 0                                   0                                 1.25e-11                         1.25e-11                  
                      -1.2706742721670423e-22                          5                                           9.9194339539246918                   1.8533689275642262e-14                 6.8035165657348472e-25            -1.2706742721670423e-22     0.98437500000000011  0                     0.98437500000000011   0                     0                    0                    0                    0                    0                      2                             2                           0                     0.99979576413437088  0.02016943289154035  0.0012743609390932062       0                                 0                                   0                                 3.75e-11                         5.0000000000000002e-11       
                      -1.2706742721670423e-22                          6                                           9.9194339539246918                   1.8533689275642262e-14                 0                              -1.2706742721670423e-22     0.98437500000000011  0                     0.98437500000000011   0                     0                    0                    0                    0                    0                      3                             0                           1                     0.99979576413437088  0.02016943289154035  0.0012743609390932062       0                                 0                                   0                                 0                                5.0000000000000002e-11       
                      -1.2611491748476549e-22                          8                                           9.7619486603209538                   1.9563935831079938e-14                 9.5250973193873669e-25            -1.2611491748476549e-22     0.96875000000000011  0                     0.96875000000000011   0                     0                    0                    0                    0                    0                      4                             1                           1                     0.99976636381742223  0.020341115723349269 -0.0073114150763730831       0                                 0                                   0                                 5.0000000000000002e-11              1e-10                     
                      -1.2611491748476549e-22                          9                                           9.7619486603209538                   1.9563935831079938e-14                 0                              -1.2611491748476549e-22     0.96875000000000011  0                     0.96875000000000011   0                     0                    0                    0                    0                    0                      5                             0                           2                     0.99976636381742223  0.020341115723349269 -0.0073114150763730831       0                                 0                                   0                                 0                                1e-10                     
                      -1.2511130779564995e-22                          11                                          9.6044647205128371                   2.0577687946181702e-14                 1.0036096891155366e-24            -1.2511130779564995e-22     0.95312500000000011  0                     0.95312500000000011   0                     0                    0                    0                    0                    0                      6                             1                           2                     0.99966543614868164  0.020510050458303269 -0.015759238555971909       0                                 0                                   0                                 5.0000000000000002e-11              1.5e-10                   
                      -3.2114405264553464e-20                          12                                          8.6077266535627093                   2.4600493828085607e-14                -3.1989293956757815e-20            -1.2511130779564995e-22     0.95312500000000011  0                     0.95312500000000011   0                    -3.1989293956757815e-20  5                    5                    0                    0                      7                             0                           3                     0.99966543614868164  0.020510050458303269 -0.015759238555971909       0                                 0                                   0                                 0                                1.5e-10                   
                      -3.2114094159457225e-20                          14                                          8.5666582911967772                   2.519831297203697e-14                 3.111050962401365e-25            -1.2593965406972093e-22     0.94921875000000011  0                     0.94921875000000011   0                    -3.1988154505387502e-20  5                    5                    0                    0                      8                             1                           3                     0.99962982829335933  0.020730807254275046 -0.017619308067427945       0                                 0                                   0                                 1.25e-11                         1.6250000000000001e-10       
                      -3.2113114734375906e-20                          16                                          8.4437909308615371                   2.7227932368290573e-14                 9.7942508132098967e-25            -1.2908419902430559e-22     0.93750000000000011  0                     0.93750000000000011   0                    -3.1984030535351596e-20  5                    5                    0                    0                      9                             2                           3                     0.99950095422973728  0.021514033170717595 -0.023129826427662203       0                                 0                                   0                                 3.75e-11                         2.0000000000000001e-10       
                      -6.4097145269727508e-20                          17                                          7.6433751458355657                   3.0081452996047371e-14                -3.1984030535351596e-20            -1.2908419902430559e-22     0.93750000000000011  0                     0.93750000000000011   0                    -6.3968061070703192e-20  10                   10                   0                    0                      10                            0                           4                     0.99950095422973728  0.021514033170717595 -0.023129826427662203       0                                 0                                   0                                 0                                2.0000000000000001e-10       
                      -6.4096761667830394e-20                          19                                          7.6026747512009729                   3.1333707288427741e-14                 3.8360189710668186e-25            -1.31876639672877e-22     0.93359375000000011  0                     0.93359375000000011   0                    -6.3964885028157526e-20  10                   10                   0                    0                      11                            1                           4                     0.99945132856496111  0.022071404129351796 -0.024696051293536379       0                                 0                                   0                                 1.25e-11                         2.1250000000000002e-10       
                      -6.40955145833474e-20                          21                                          7.4825335704237199                   3.5484762086484763e-14                 1.2470844829973291e-24            -1.4128207963579285e-22     0.92187500000000011  0                     0.92187500000000011   0                    -6.3954232503711609e-20  10                   10                   0                    0                      12                            2                           4                     0.99928488287049377  0.023946115192507261 -0.029262714052029112       0                                 0                                   0                                 3.75e-11                         2.5000000000000002e-10       
                      -1.4128207963579285e-22                          22                                          9.2888544018938521                   2.8771250816046588e-14                 6.3954232503711609e-20            -1.4128207963579285e-22     0.92187500000000011  0                     0.92187500000000011   0                     0                    0                    0                    0                    0                      13                            0                           5                     0.99928488287049377  0.023946115192507261 -0.029262714052029112       0                                 0                                   0                                 0                                2.5000000000000002e-10       
                      -1.4092092176911594e-22                          24                                          9.2494858829985098                   2.9013835829974901e-14                 3.6115786667692141e-25            -1.4092092176911594e-22     0.91796875000000011  0                     0.91796875000000011   0                     0                    0                    0                    0                    0                      14                            1                           5                     0.99922268992833818  0.023986539875594199 -0.031283571362180164       0                                 0                                   0                                 1.25e-11                         2.6250000000000002e-10       
                      -1.3981934437031299e-22                          26                                          9.1313809214919672                   2.9735406043349284e-14                 1.1015773988029459e-24            -1.3981934437031299e-22     0.90625000000000011  0                     0.90625000000000011   0                     0                    0                    0                    0                    0                      15                            2                           5                     0.99901353012730065  0.024106783512122927 -0.03729382805892472       0                                 0                                   0                                 3.75e-11                         3e-10                     
                      -3.2108252308443939e-20                          27                                          8.1375077178327029                   3.3538886566804216e-14                -3.1968432964073626e-20            -1.3981934437031299e-22     0.90625000000000011  0                     0.90625000000000011   0                    -3.1968432964073626e-20  5                    5                    0                    0                      16                            0                           6                     0.99901353012730065  0.024106783512122927 -0.03729382805892472       0                                 0                                   0                                 0                                3e-10                     
                      -3.210782662633038e-20                          29                                          8.0974778625517096                   3.4590452995780208e-14                 4.2568211355762987e-25            -1.4183721610454082e-22     0.90234375000000011  0                     0.90234375000000011   0                    -3.1965989410225838e-20  5                    5                    0                    0                      17                            1                           6                     0.99893716906955732  0.024560556901219187 -0.039003990770184092       0                                 0                                   0                                 1.25e-11                         3.1250000000000001e-10       
                      -3.2106469574818393e-20                          31                                          7.9781471493324325                   3.7959552610019961e-14                 1.357051511987624e-24            -1.4838553188089579e-22     0.89062500000000011  0                     0.89062500000000011   0                    -3.1958084042937498e-20  5                    5                    0                    0                      18                            2                           6                     0.99869012634179666  0.026032549452788732 -0.044049266922326906       0                                 0                                   0                                 3.75e-11                         3.5000000000000003e-10       
                      -1.9323235957643394e-20                          32                                          8.2948378515130603                   3.6817494076060326e-14                 1.2783233617174999e-20            -1.4838553188089579e-22     0.89062500000000011  0                     0.89062500000000011   0                    -1.9174850425762496e-20  3.0000000000000004   3.0000000000000004   0                    0                      19                            0                           7                     0.99869012634179666  0.026032549452788732 -0.044049266922326906       0                                 0                                   0                                 0                                3.5000000000000003e-10       
                      -1.9322770750064612e-20                          34                                          8.254916384245881                    3.7627865297346205e-14                 4.6520757878255568e-25            -1.4961869555042063e-22     0.88671875000000011  0                     0.88671875000000011   0                    -1.9173152054514191e-20  3.0000000000000004   3.0000000000000004   0                    0                      20                            1                           7                     0.99860166950594731  0.026364527850294382 -0.04582158150005182       0                                 0                                   0                                 1.25e-11                         3.6249999999999999e-10       
                      -1.9321313652457413e-20                          36                                          8.1354814871303294                   4.0190766699005784e-14                 1.4570976071983811e-24            -1.5360279229922087e-22     0.87500000000000011  0                     0.87500000000000011   0                    -1.9167710860158192e-20  3.0000000000000004   3.0000000000000004   0                    0                      21                            2                           7                     0.99831827396657236  0.027429070053432293 -0.051071224583004532       0                                 0                                   0                                 3.75e-11                         4.0000000000000001e-10       
                      -6.542839745685285e-21                          37                                          8.5551668471086852                   3.863844098011523e-14                 1.2778473906772128e-20            -1.5360279229922087e-22     0.87500000000000011  0                     0.87500000000000011   0                    -6.3892369533860641e-21  1                    1                    0                    0                      22                            0                           8                     0.99831827396657236  0.027429070053432293 -0.051071224583004532       0                                 0                                   0                                 0                                4.0000000000000001e-10       
                      -6.5423539588389933e-21                          39                                          8.5155015457466039                   3.9091434490420185e-14                 4.8578684629159114e-25            -1.5376150988206106e-22     0.87109375000000011  0                     0.87109375000000011   0                    -6.3885924489569319e-21  1                    1                    0                    0                      23                            1                           8                     0.99821757014952051  0.027580539889158928 -0.05292444108547209       0                                 0                                   0                                 1.25e-11                         4.1250000000000002e-10       
                      -6.5408624201439094e-21                          41                                          8.3965546250266136                   4.0492669924103331e-14                 1.4915386950840244e-24            -1.5432042987986972e-22     0.85937500000000011  0                     0.85937500000000011   0                    -6.3865419902640396e-21  1                    1                    0                    0                      24                            2                           8                     0.99789718597875599  0.028058259978158126 -0.058428933437793366       0                                 0                                   0                                 3.75e-11                         4.5e-10                   
                      -6.5408624201439094e-21                          42                                          8.3965546250266136                   4.0492669924103331e-14                 0                              -1.5432042987986972e-22     0.85937500000000011  0                     0.85937500000000011   0                    -6.3865419902640396e-21  1                    1                    0                    0                      25                            0                           9                     0.99789718597875599  0.028058259978158126 -0.058428933437793366       0                                 0                                   0                                 0                                4.5e-10                   
                      -6.5387901988899292e-21                          44                                          8.238084718727718                    4.2457843151483066e-14                 2.0722212539801651e-24            -1.5524328802065787e-22     0.84375000000000011  0                     0.84375000000000011   0                    -6.3835469108692709e-21  1                    1                    0                    0                      26                            1                           9                     0.99742920482332353  0.028748757040862563 -0.065639091508932892       0                                 0                                   0                                 5.0000000000000002e-11              5.0000000000000003e-10       
                      -6.5387901988899292e-21                          45                                          8.238084718727718                    4.2457843151483066e-14                 0                              -1.5524328802065787e-22     0.84375000000000011  0                     0.84375000000000011   0                    -6.3835469108692709e-21  1                    1                    0                    0                      27                            0                           10                    0.99742920482332353  0.028748757040862563 -0.065639091508932892       0                                 0                                   0                                 0                                5.0000000000000003e-10       
                      -6.536616984692798e-21                          47                                          8.0797775545838402                   4.4531058348980717e-14                 2.1732141971307994e-24            -1.5634539782749005e-22     0.82812500000000011  0                     0.82812500000000011   0                    -6.3802715868653079e-21  1                    1                    0                    0                      28                            1                           10                    0.99691743544770428  0.029499131665564157 -0.072700950003078441       0                                 0                                   0                                 5.0000000000000002e-11              5.5000000000000007e-10       
# Table End
