# ODT 1.0
# Table Start
# Title: mmArchive Data Table, Wed Jun 16 18:51:12 EDT 2010
# Columns: {Oxs_RungeKuttaEvolve:evolve:Total energy} {Oxs_RungeKuttaEvolve:evolve:Energy calc count} {Oxs_RungeKuttaEvolve:evolve:Max dm/dt} Oxs_RungeKuttaEvolve:evolve:dE/dt {Oxs_RungeKuttaEvolve:evolve:Delta E} Oxs_ScriptUZeeman::Energy Oxs_ScriptUZeeman::B Oxs_ScriptUZeeman::Bx Oxs_ScriptUZeeman::By Oxs_ScriptUZeeman::Bz Oxs_UZeeman::Energy  Oxs_UZeeman::B       Oxs_UZeeman::Bx      Oxs_UZeeman::By      Oxs_UZeeman::Bz      Oxs_TimeDriver::Iteration {Oxs_TimeDriver::Stage iteration} Oxs_TimeDriver::Stage Oxs_TimeDriver::mx   Oxs_TimeDriver::my   Oxs_TimeDriver::mz   {Oxs_TimeDriver::Max Spin Ang} {Oxs_TimeDriver::Stage Max Spin Ang} {Oxs_TimeDriver::Run Max Spin Ang} {Oxs_TimeDriver::Last time step} {Oxs_TimeDriver::Simulation time}
# Units:                       J                                            {}                                        deg/ns                                 J/s                                  J                               J                      mT                   mT                    mT                    mT                    J                 mT                   mT                   mT                   mT                        {}                            {}                          {}                   {}                   {}                   {}                        deg                               deg                                 deg                                s                                 s                
                      -1.279680119950022e-22                          1                                           10.07692059977275                    1.7486947825997281e-14                 0                              -1.279680119950022e-22     1                    0                     1                     0                     0                    0                    0                    0                    0                      0                             0                           0                     0.99975009371095458  0.019995001874219091  0.0099975009371095457       0                                 0                                   0                                 0                                0                         
                      -1.277477788732777e-22                          3                                           10.037548811665044                   1.7750179606256831e-14                 2.2023312172450152e-25            -1.277477788732777e-22     0.99609375000000011  0                     0.99609375000000011   0                     0                    0                    0                    0                    0                      1                             1                           0                     0.99976874495192503  0.020038867274239636  0.0078038718350700404       0                                 0                                   0                                 1.25e-11                         1.25e-11                  
                      -1.2706742721670423e-22                          5                                           9.9194339539246918                   1.8533689275642262e-14                 6.8035165657348472e-25            -1.2706742721670423e-22     0.98437500000000011  0                     0.98437500000000011   0                     0                    0                    0                    0                    0                      2                             2                           0                     0.99979576413437088  0.02016943289154035  0.0012743609390932062       0                                 0                                   0                                 3.75e-11                         5.0000000000000002e-11       
                      -1.2706742721670423e-22                          6                                           9.9194339539246918                   1.8533689275642262e-14                 0                              -1.2706742721670423e-22     0.98437500000000011  0                     0.98437500000000011   0                     0                    0                    0                    0                    0                      3                             0                           1                     0.99979576413437088  0.02016943289154035  0.0012743609390932062       0                                 0                                   0                                 0                                5.0000000000000002e-11       
                      -1.2611491748476549e-22                          8                                           9.7619486603209538                   1.9563935831079938e-14                 9.5250973193873669e-25            -1.2611491748476549e-22     0.96875000000000011  0                     0.96875000000000011   0                     0                    0                    0                    0                    0                      4                             1                           1                     0.99976636381742223  0.020341115723349269 -0.0073114150763730831       0                                 0                                   0                                 5.0000000000000002e-11              1e-10                     
                      -1.2611491748476549e-22                          9                                           9.7619486603209538                   1.9563935831079938e-14                 0                              -1.2611491748476549e-22     0.96875000000000011  0                     0.96875000000000011   0                     0                    0                    0                    0                    0                      5                             0                           2                     0.99976636381742223  0.020341115723349269 -0.0073114150763730831       0                                 0                                   0                                 0                                1e-10                     
                      -1.2511130779564995e-22                          11                                          9.6044647205128371                   2.0577687946181702e-14                 1.0036096891155366e-24            -1.2511130779564995e-22     0.95312500000000011  0                     0.95312500000000011   0                     0                    0                    0                    0                    0                      6                             1                           2                     0.99966543614868164  0.020510050458303269 -0.015759238555971909       0                                 0                                   0                                 5.0000000000000002e-11              1.5e-10                   
                      -3.2114405264553464e-20                          12                                          8.6077266535627093                   2.4600493828085607e-14                -3.1989293956757815e-20            -1.2511130779564995e-22     0.95312500000000011  0                     0.95312500000000011   0                    -3.1989293956757815e-20  5                    5                    0                    0                      7                             0                           3                     0.99966543614868164  0.020510050458303269 -0.015759238555971909       0                                 0                                   0                                 0                                1.5e-10                   
                      -3.2113117880677901e-20                          14                                          8.4437612541660503                   2.7229593421080381e-14                 1.2873838755659959e-24            -1.2908884899469505e-22     0.93750000000000011  0                     0.93750000000000011   0                    -3.1984029031683206e-20  5                    5                    0                    0                      8                             1                           3                     0.99950090724009999  0.021514808165782506 -0.023131136068221432       0                                 0                                   0                                 5.0000000000000002e-11              2.0000000000000001e-10       
                      -6.4097146912361102e-20                          15                                          7.6433409821606206                   3.0083118721148471e-14                -3.1984029031683206e-20            -1.2908884899469505e-22     0.93750000000000011  0                     0.93750000000000011   0                    -6.3968058063366413e-20  10                   10                   0                    0                      9                             0                           4                     0.99950090724009999  0.021514808165782506 -0.023131136068221432       0                                 0                                   0                                 0                                2.0000000000000001e-10       
                      -6.4095520540938634e-20                          17                                          7.4824070027639022                   3.549278085872244e-14                 1.62637142247511e-24            -1.4130449677172781e-22     0.92187500000000011  0                     0.92187500000000011   0                    -6.3954216044166907e-20  10                   10                   0                    0                      10                            1                           4                     0.99928462569010768  0.023949914707072507 -0.029268386441778781       0                                 0                                   0                                 5.0000000000000002e-11              2.5000000000000002e-10       
                      -1.4130449677172781e-22                          18                                          9.2888535562082968                   2.8778853326841188e-14                 6.3954216044166907e-20            -1.4130449677172781e-22     0.92187500000000011  0                     0.92187500000000011   0                     0                    0                    0                    0                    0                      11                            0                           5                     0.99928462569010768  0.023949914707072507 -0.029268386441778781       0                                 0                                   0                                 0                                2.5000000000000002e-10       
                      -1.3984138111722841e-22                          20                                          9.1313800845758735                   2.9743008308744036e-14                 1.4631156544994107e-24            -1.3984138111722841e-22     0.90625000000000011  0                     0.90625000000000011   0                     0                    0                    0                    0                    0                      12                            1                           5                     0.99901322769269707  0.024110582951246275 -0.037299472982477121       0                                 0                                   0                                 5.0000000000000002e-11              3e-10                     
                      -3.210826466728354e-20                          21                                          8.1373867762490484                   3.35469216390226e-14                -3.1968423286166311e-20            -1.3984138111722841e-22     0.90625000000000011  0                     0.90625000000000011   0                    -3.1968423286166311e-20  5                    5                    0                    0                      13                            0                           6                     0.99901322769269707  0.024110582951246275 -0.037299472982477121       0                                 0                                   0                                 0                                3e-10                     
                      -3.2106484398238578e-20                          23                                          7.9779992001913227                   3.7970033741229422e-14                 1.7802690449622205e-24            -1.4841391212715083e-22     0.89062500000000011  0                     0.89062500000000011   0                    -3.1958070486111424e-20  5                    5                    0                    0                      14                            1                           6                     0.9986897026909819   0.026037528443359791 -0.044055928676619997       0                                 0                                   0                                 5.0000000000000002e-11              3.5000000000000003e-10       
                      -1.9323256203794006e-20                          24                                          8.2947208781166353                   3.6827882096120696e-14                 1.278322819444457e-20            -1.4841391212715083e-22     0.89062500000000011  0                     0.89062500000000011   0                    -1.9174842291666854e-20  3.0000000000000004   3.0000000000000004   0                    0                      15                            0                           7                     0.9986897026909819   0.026037528443359791 -0.044055928676619997       0                                 0                                   0                                 0                                3.5000000000000003e-10       
                      -1.9321335181369894e-20                          26                                          8.135354678591197                    4.0202406275269798e-14                 1.9210224241114483e-24            -1.5363410284081407e-22     0.87500000000000011  0                     0.87500000000000011   0                    -1.916770107852908e-20  3.0000000000000004   3.0000000000000004   0                    0                      16                            1                           7                     0.99831776450672283  0.027434661221573939 -0.051078179626500402       0                                 0                                   0                                 5.0000000000000002e-11              4.0000000000000001e-10       
                      -6.5428677956838407e-21                          27                                          8.5551136433500066                   3.8649825053264751e-14                 1.2778467385686053e-20            -1.5363410284081407e-22     0.87500000000000011  0                     0.87500000000000011   0                    -6.3892336928430266e-21  1                    1                    0                    0                      17                            0                           8                     0.99831776450672283  0.027434661221573939 -0.051078179626500402       0                                 0                                   0                                 0                                4.0000000000000001e-10       
                      -6.5408905144436912e-21                          29                                          8.3965003470266719                   4.0504410248482109e-14                 1.9772812401492894e-24            -1.5435216028725673e-22     0.85937500000000011  0                     0.85937500000000011   0                    -6.3865383541564347e-21  1                    1                    0                    0                      18                            1                           8                     0.99789661783694283  0.028064029143137586 -0.058435865509493874       0                                 0                                   0                                 5.0000000000000002e-11              4.5e-10                   
                      -6.5408905144436912e-21                          30                                          8.3965003470266719                   4.0504410248482109e-14                 0                              -1.5435216028725673e-22     0.85937500000000011  0                     0.85937500000000011   0                    -6.3865383541564347e-21  1                    1                    0                    0                      19                            0                           9                     0.99789661783694283  0.028064029143137586 -0.058435865509493874       0                                 0                                   0                                 0                                4.5e-10                   
                      -6.53881770328636e-21                          32                                          8.2380305753931307                   4.2469698465556631e-14                 2.0728111573311985e-24            -1.5527476360449275e-22     0.84375000000000011  0                     0.84375000000000011   0                    -6.3835429396818676e-21  1                    1                    0                    0                      20                            1                           9                     0.99742858432529169  0.028754585852683839 -0.065645966847058895       0                                 0                                   0                                 5.0000000000000002e-11              5.0000000000000003e-10       
                      -6.53881770328636e-21                          33                                          8.2380305753931307                   4.2469698465556631e-14                 0                              -1.5527476360449275e-22     0.84375000000000011  0                     0.84375000000000011   0                    -6.3835429396818676e-21  1                    1                    0                    0                      21                            0                           10                    0.99742858432529169  0.028754585852683839 -0.065645966847058895       0                                 0                                   0                                 0                                5.0000000000000003e-10       
                      -6.5366438934628889e-21                          35                                          8.0797235638515854                   4.4543027585508274e-14                 2.1738098234711872e-24            -1.5637660393998211e-22     0.82812500000000011  0                     0.82812500000000011   0                    -6.3802672895229068e-21  1                    1                    0                    0                      22                            1                           10                    0.99691676398795404  0.029505019611317376 -0.072707767793555769       0                                 0                                   0                                 5.0000000000000002e-11              5.5000000000000007e-10       
# Table End
