# ODT 1.0
# Table Start
# Title: mmArchive Data Table, Wed Jun 16 18:51:12 EDT 2010
# Columns: {Oxs_RungeKuttaEvolve:evolve:Total energy} {Oxs_RungeKuttaEvolve:evolve:Energy calc count} {Oxs_RungeKuttaEvolve:evolve:Max dm/dt} Oxs_RungeKuttaEvolve:evolve:dE/dt {Oxs_RungeKuttaEvolve:evolve:Delta E} Oxs_ScriptUZeeman::Energy Oxs_ScriptUZeeman::B Oxs_ScriptUZeeman::Bx Oxs_ScriptUZeeman::By Oxs_ScriptUZeeman::Bz Oxs_UZeeman::Energy  Oxs_UZeeman::B       Oxs_UZeeman::Bx      Oxs_UZeeman::By      Oxs_UZeeman::Bz      Oxs_TimeDriver::Iteration {Oxs_TimeDriver::Stage iteration} Oxs_TimeDriver::Stage Oxs_TimeDriver::mx   Oxs_TimeDriver::my   Oxs_TimeDriver::mz   {Oxs_TimeDriver::Max Spin Ang} {Oxs_TimeDriver::Stage Max Spin Ang} {Oxs_TimeDriver::Run Max Spin Ang} {Oxs_TimeDriver::Last time step} {Oxs_TimeDriver::Simulation time}
# Units:                       J                                            {}                                        deg/ns                                 J/s                                  J                               J                      mT                   mT                    mT                    mT                    J                 mT                   mT                   mT                   mT                        {}                            {}                          {}                   {}                   {}                   {}                        deg                               deg                                 deg                                s                                 s                
                      -1.279680119950022e-22                          1                                           10.07692059977275                    1.7486947825997281e-14                 0                              -1.279680119950022e-22     1                    0                     1                     0                     0                    0                    0                    0                    0                      0                             0                           0                     0.99975009371095458  0.019995001874219091  0.0099975009371095457       0                                 0                                   0                                 0                                0                         
                      -1.277477788732777e-22                          3                                           10.037548811665044                   1.7750179606256831e-14                 2.2023312172450152e-25            -1.277477788732777e-22     0.99609375000000011  0                     0.99609375000000011   0                     0                    0                    0                    0                    0                      1                             1                           0                     0.99976874495192503  0.020038867274239636  0.0078038718350700404       0                                 0                                   0                                 1.25e-11                         1.25e-11                  
                      -1.2706742721670423e-22                          5                                           9.9194339539246918                   1.8533689275642262e-14                 6.8035165657348472e-25            -1.2706742721670423e-22     0.98437500000000011  0                     0.98437500000000011   0                     0                    0                    0                    0                    0                      2                             2                           0                     0.99979576413437088  0.02016943289154035  0.0012743609390932062       0                                 0                                   0                                 3.75e-11                         5.0000000000000002e-11       
                      -1.2706742721670423e-22                          6                                           9.9194339539246918                   1.8533689275642262e-14                 0                              -1.2706742721670423e-22     0.98437500000000011  0                     0.98437500000000011   0                     0                    0                    0                    0                    0                      3                             0                           1                     0.99979576413437088  0.02016943289154035  0.0012743609390932062       0                                 0                                   0                                 0                                5.0000000000000002e-11       
                      -1.2683413560026917e-22                          8                                           9.8800625036686753                   1.8792797318441573e-14                 2.3329161643506389e-25            -1.2683413560026917e-22     0.98046875000000011  0                     0.98046875000000011   0                     0                    0                    0                    0                    0                      4                             1                           1                     0.99979531261568122  0.020212611251038907 -0.00088499611672676452       0                                 0                                   0                                 1.25e-11                         6.2500000000000004e-11       
                      -1.2611491774031902e-22                          10                                          9.7619486603127665                   1.9563935913551986e-14                 7.1921785995014702e-25            -1.2611491774031902e-22     0.96875000000000011  0                     0.96875000000000011   0                     0                    0                    0                    0                    0                      5                             2                           1                     0.99976636359231863  0.020341115764567579 -0.0073114457424129564       0                                 0                                   0                                 3.75e-11                         1e-10                     
                      -1.2611491774031902e-22                          11                                          9.7619486603127665                   1.9563935913551986e-14                 0                              -1.2611491774031902e-22     0.96875000000000011  0                     0.96875000000000011   0                     0                    0                    0                    0                    0                      6                             0                           2                     0.99976636359231863  0.020341115764567579 -0.0073114457424129564       0                                 0                                   0                                 0                                1e-10                     
                      -1.2586877381374318e-22                          13                                          9.7225775484029864                   1.9818920311118619e-14                 2.461439265758183e-25            -1.2586877381374318e-22     0.96484375000000011  0                     0.96484375000000011   0                     0                    0                    0                    0                    0                      7                             1                           2                     0.99974769991489221  0.020383607095343023 -0.0094363698881120613       0                                 0                                   0                                 1.25e-11                         1.125e-10                 
                      -1.2511130829711845e-22                          15                                          9.6044647204966367                   2.0577688110666569e-14                 7.5746551662475059e-25            -1.2511130829711845e-22     0.95312500000000011  0                     0.95312500000000011   0                     0                    0                    0                    0                    0                      8                             2                           2                     0.99966543520282047  0.020510050540511218 -0.015759298448254418       0                                 0                                   0                                 3.75e-11                         1.5e-10                   
                      -3.211440523478738e-20                          16                                          8.6077269289871925                   2.4600492941733503e-14                -3.1989293926490261e-20            -1.2511130829711845e-22     0.95312500000000011  0                     0.95312500000000011   0                    -3.1989293926490261e-20  5                    5                    0                    0                      9                             0                           3                     0.99966543520282047  0.020510050540511218 -0.015759298448254418       0                                 0                                   0                                 0                                1.5e-10                   
                      -3.2114094129693988e-20                          18                                          8.5666585679124481                   2.5198313402142187e-14                 3.1110509338863405e-25            -1.2593965856753667e-22     0.94921875000000011  0                     0.94921875000000011   0                    -3.1988154471126454e-20  5                    5                    0                    0                      10                            1                           3                     0.99962982722270155  0.020730807994656236 -0.017619367939871254       0                                 0                                   0                                 1.25e-11                         1.6250000000000001e-10       
                      -3.2113114704522595e-20                          20                                          8.4437912124447649                   2.7227936739407944e-14                 9.7942517139228627e-25            -1.2908421529907147e-22     0.93750000000000011  0                     0.93750000000000011   0                    -3.1984030489223528e-20  5                    5                    0                    0                      11                            2                           3                     0.99950095278823503  0.021514035883178576 -0.023129886195733786       0                                 0                                   0                                 3.75e-11                         2.0000000000000001e-10       
                      -6.4097145193746129e-20                          21                                          7.6433767261009571                   3.0081453067552355e-14                -3.1984030489223528e-20            -1.2908421529907147e-22     0.93750000000000011  0                     0.93750000000000011   0                    -6.3968060978447055e-20  10                   10                   0                    0                      12                            0                           4                     0.99950095278823503  0.021514035883178576 -0.023129886195733786       0                                 0                                   0                                 0                                2.0000000000000001e-10       
                      -6.4096761591831742e-20                          23                                          7.6026763402780357                   3.1333709981780152e-14                 3.8360191438796521e-25            -1.3187666371614234e-22     0.93359375000000011  0                     0.93359375000000011   0                    -6.39648849281156e-20  10                   10                   0                    0                      13                            1                           4                     0.99945132700180606  0.022071408153329256 -0.024696110958168174       0                                 0                                   0                                 1.25e-11                         2.1250000000000002e-10       
                      -6.409551450710064e-20                          25                                          7.4825351902546204                   3.5484772593475145e-14                 1.247084731093129e-24            -1.4128212647874947e-22     0.92187500000000011  0                     0.92187500000000011   0                    -6.3954232380621899e-20  10                   10                   0                    0                      14                            2                           4                     0.99928488094721701  0.023946123131991435 -0.029262773232452445       0                                 0                                   0                                 3.75e-11                         2.5000000000000002e-10       
                      -1.4128212647874947e-22                          26                                          9.2888544001268425                   2.8771266702289655e-14                 6.3954232380621899e-20            -1.4128212647874947e-22     0.92187500000000011  0                     0.92187500000000011   0                     0                    0                    0                    0                    0                      15                            0                           5                     0.99928488094721701  0.023946123131991435 -0.029262773232452445       0                                 0                                   0                                 0                                2.5000000000000002e-10       
                      -1.4092096841349501e-22                          28                                          9.249485881236021                    2.9013851716137833e-14                 3.6115806525445916e-25            -1.4092096841349501e-22     0.91796875000000011  0                     0.91796875000000011   0                     0                    0                    0                    0                    0                      16                            1                           5                     0.9992226878850603   0.023986547815062979 -0.031283630538525439       0                                 0                                   0                                 1.25e-11                         2.6250000000000002e-10       
                      -1.3981939041896543e-22                          30                                          9.1313809197432594                   2.9735421929272276e-14                 1.1015779945295919e-24            -1.3981939041896543e-22     0.90625000000000011  0                     0.90625000000000011   0                     0                    0                    0                    0                    0                      17                            2                           5                     0.99901352772713081  0.024106791451545762 -0.03729388722170094       0                                 0                                   0                                 3.75e-11                         3e-10                     
                      -3.2108252277687157e-20                          31                                          8.1375080188112445                   3.3538901360117519e-14                -3.196843288726819e-20            -1.3981939041896543e-22     0.90625000000000011  0                     0.90625000000000011   0                    -3.196843288726819e-20  5                    5                    0                    0                      18                            0                           6                     0.99901352772713081  0.024106791451545762 -0.03729388722170094       0                                 0                                   0                                 0                                3e-10                     
                      -3.210782659538062e-20                          33                                          8.0974781669118858                   3.4590469078165152e-14                 4.256823065368653e-25            -1.4183726569652705e-22     0.90234375000000011  0                     0.90234375000000011   0                    -3.1965989329684092e-20  5                    5                    0                    0                      19                            1                           6                     0.99893716655262776  0.02456056548857611 -0.03900404982420512       0                                 0                                   0                                 1.25e-11                         3.1250000000000001e-10       
                      -3.2106469543193196e-20                          35                                          7.9781474649732473                   3.7959572539654e-14                 1.35705218742495e-24            -1.4838559186129583e-22     0.89062500000000011  0                     0.89062500000000011   0                    -3.1958083951331898e-20  5                    5                    0                    0                      20                            2                           6                     0.99869012347912167  0.02603255997566593 -0.044049325606302751       0                                 0                                   0                                 3.75e-11                         3.5000000000000003e-10       
                      -1.9323235962660435e-20                          36                                          8.2948378225270147                   3.6817515228379253e-14                 1.278323358053276e-20            -1.4838559186129583e-22     0.89062500000000011  0                     0.89062500000000011   0                    -1.9174850370799137e-20  3.0000000000000004   3.0000000000000004   0                    0                      21                            0                           7                     0.99869012347912167  0.02603255997566593 -0.044049325606302751       0                                 0                                   0                                 0                                3.5000000000000003e-10       
                      -1.9322770754812463e-20                          38                                          8.254916356683081                    3.7627887214631743e-14                 4.652078479708061e-25            -1.4961875745457233e-22     0.88671875000000011  0                     0.88671875000000011   0                    -1.9173151997357892e-20  3.0000000000000004   3.0000000000000004   0                    0                      22                            1                           7                     0.99860166652905669  0.026364538758514945 -0.045821640099863344       0                                 0                                   0                                 1.25e-11                         3.6249999999999999e-10       
                      -1.9321313656340404e-20                          40                                          8.1354814642591204                   4.0190790902579427e-14                 1.4570984720603064e-24            -1.5360285983831523e-22     0.87500000000000011  0                     0.87500000000000011   0                    -1.9167710796502088e-20  3.0000000000000004   3.0000000000000004   0                    0                      23                            2                           7                     0.99831827065115031  0.027429082113984857 -0.05107128291399117       0                                 0                                   0                                 3.75e-11                         4.0000000000000001e-10       
                      -6.5428397920056778e-21                          41                                          8.5551667592510654                   3.8638465434358021e-14                 1.2778473864334725e-20            -1.5360285983831523e-22     0.87500000000000011  0                     0.87500000000000011   0                    -6.3892369321673627e-21  1                    1                    0                    0                      24                            0                           8                     0.99831827065115031  0.027429082113984857 -0.05107128291399117       0                                 0                                   0                                 0                                4.0000000000000001e-10       
                      -6.5423540048521266e-21                          43                                          8.5155014580717587                   3.9091459197717557e-14                 4.8578715355167655e-25            -1.5376157783125961e-22     0.87109375000000011  0                     0.87109375000000011   0                    -6.3885924270208666e-21  1                    1                    0                    0                      25                            1                           8                     0.99821756672201023  0.02758055207735598 -0.052924499380695378       0                                 0                                   0                                 1.25e-11                         4.1250000000000002e-10       
                      -6.5408624652162929e-21                          45                                          8.3965545379475355                   4.0492695389405377e-14                 1.4915396358331518e-24            -1.5432049901827441e-22     0.85937500000000011  0                     0.85937500000000011   0                    -6.3865419661980185e-21  1                    1                    0                    0                      26                            2                           8                     0.99789718221844026  0.028058272548777161 -0.058428991622956623       0                                 0                                   0                                 3.75e-11                         4.5e-10                   
                      -6.5408624652162929e-21                          46                                          8.3965545379475355                   4.0492695389405377e-14                 0                              -1.5432049901827441e-22     0.85937500000000011  0                     0.85937500000000011   0                    -6.3865419661980185e-21  1                    1                    0                    0                      27                            0                           9                     0.99789718221844026  0.028058272548777161 -0.058428991622956623       0                                 0                                   0                                 0                                4.5e-10                   
                      -6.5403533251401674e-21                          48                                          8.3569233727651628                   4.097361382886971e-14                 5.0914007612553657e-25            -1.5453276356421959e-22     0.85546875000000011  0                     0.85546875000000011   0                    -6.3858205615759478e-21  1                    1                    0                    0                      28                            1                           9                     0.99778446274624177  0.028225162294834624 -0.060245382525335414       0                                 0                                   0                                 1.25e-11                         4.6250000000000001e-10       
                      -6.5387896386182035e-21                          50                                          8.2380858216354937                   4.2457628520114745e-14                 1.5636865219641621e-24            -1.5524271938885522e-22     0.84375000000000011  0                     0.84375000000000011   0                    -6.3835469192293484e-21  1                    1                    0                    0                      29                            2                           9                     0.99742920612958552  0.028748651738676891 -0.065639117779820025       0                                 0                                   0                                 3.75e-11                         5.0000000000000003e-10       
                      -6.5387896386182035e-21                          51                                          8.2380858216354937                   4.2457628520114745e-14                 0                              -1.5524271938885522e-22     0.84375000000000011  0                     0.84375000000000011   0                    -6.3835469192293484e-21  1                    1                    0                    0                      30                            0                           10                    0.99742920612958552  0.028748651738676891 -0.065639117779820025       0                                 0                                   0                                 0                                5.0000000000000003e-10       
                      -6.5382557659805015e-21                          53                                          8.1984934914914369                   4.2965807159043884e-14                 5.3387263770211583e-25            -1.5550215725453698e-22     0.83984375000000011  0                     0.83984375000000011   0                    -6.3827536087259646e-21  1                    1                    0                    0                      31                            1                           10                    0.99730525136343173  0.02893063390782083 -0.067418499127567325       0                                 0                                   0                                 1.25e-11                         5.1250000000000004e-10       
                      -6.5366158435145232e-21                          55                                          8.0797798442724336                   4.4530602747478909e-14                 1.6399224659779217e-24            -1.5634421221240229e-22     0.82812500000000011  0                     0.82812500000000011   0                    -6.380271631302121e-21  1                    1                    0                    0                      32                            2                           10                    0.99691744239095625  0.029498907964604203 -0.072700945561733815       0                                 0                                   0                                 3.75e-11                         5.5000000000000007e-10       
# Table End
