# ODT 1.0
# Table Start
# Title: mmArchive Data Table, Wed Jun 16 18:51:09 EDT 2010
# Columns: {Oxs_RungeKuttaEvolve:evolve:Total energy} {Oxs_RungeKuttaEvolve:evolve:Energy calc count} {Oxs_RungeKuttaEvolve:evolve:Max dm/dt} Oxs_RungeKuttaEvolve:evolve:dE/dt {Oxs_RungeKuttaEvolve:evolve:Delta E} Oxs_ScriptUZeeman::Energy Oxs_ScriptUZeeman::B Oxs_ScriptUZeeman::Bx Oxs_ScriptUZeeman::By Oxs_ScriptUZeeman::Bz Oxs_UZeeman::Energy  Oxs_UZeeman::B       Oxs_UZeeman::Bx      Oxs_UZeeman::By      Oxs_UZeeman::Bz      Oxs_TimeDriver::Iteration {Oxs_TimeDriver::Stage iteration} Oxs_TimeDriver::Stage Oxs_TimeDriver::mx   Oxs_TimeDriver::my   Oxs_TimeDriver::mz   {Oxs_TimeDriver::Max Spin Ang} {Oxs_TimeDriver::Stage Max Spin Ang} {Oxs_TimeDriver::Run Max Spin Ang} {Oxs_TimeDriver::Last time step} {Oxs_TimeDriver::Simulation time}
# Units:                       J                                            {}                                        deg/ns                                 J/s                                  J                               J                      mT                   mT                    mT                    mT                    J                 mT                   mT                   mT                   mT                        {}                            {}                          {}                   {}                   {}                   {}                        deg                               deg                                 deg                                s                                 s                
                      -1.279680119950022e-22                          1                                           10.07692059977275                    1.7486947825997281e-14                 0                              -1.279680119950022e-22     1                    0                     1                     0                     0                    0                    0                    0                    0                      0                             0                           0                     0.99975009371095458  0.019995001874219091  0.0099975009371095457       0                                 0                                   0                                 0                                0                         
                      -1.2774777947607012e-22                          3                                           10.037548811646017                   1.7750179795452819e-14                 2.2023251893209609e-25            -1.2774777947607012e-22     0.99609375000000011  0                     0.99609375000000011   0                     0                    0                    0                    0                    0                      1                             1                           0                     0.9997687449603937   0.020038867368795309  0.0078038705073311234       0                                 0                                   0                                 1.25e-11                         1.25e-11                  
                      -1.2706744394739007e-22                          5                                           9.9194339533931579                   1.8533694589307964e-14                 6.8033552868004939e-25            -1.2706744394739007e-22     0.98437500000000011  0                     0.98437500000000011   0                     0                    0                    0                    0                    0                      2                             2                           0                     0.99979576412781934  0.020169435547204771  0.0012743240470544559       0                                 0                                   0                                 3.75e-11                         5.0000000000000002e-11       
                      -1.2706744394739007e-22                          6                                           9.9194339533931579                   1.8533694589307964e-14                 0                              -1.2706744394739007e-22     0.98437500000000011  0                     0.98437500000000011   0                     0                    0                    0                    0                    0                      3                             0                           1                     0.99979576412781934  0.020169435547204771  0.0012743240470544559       0                                 0                                   0                                 0                                5.0000000000000002e-11       
                      -1.268341528536467e-22                          8                                           9.8800625031193618                   1.8792802819931497e-14                 2.3329109374335931e-25            -1.268341528536467e-22     0.98046875000000011  0                     0.98046875000000011   0                     0                    0                    0                    0                    0                      4                             1                           1                     0.99979531252631682  0.020212614000581147 -0.00088503427500171447       0                                 0                                   0                                 1.25e-11                         6.2500000000000004e-11       
                      -1.2611495054932436e-22                          10                                          9.7619486592615488                   1.9563946501650354e-14                 7.1920230432234512e-25            -1.2611495054932436e-22     0.96875000000000011  0                     0.96875000000000011   0                     0                    0                    0                    0                    0                      5                             2                           1                     0.99976636295758414  0.020341121056342636 -0.0073115178133764704       0                                 0                                   0                                 3.75e-11                         1e-10                     
                      -1.2611495054932436e-22                          11                                          9.7619486592615488                   1.9563946501650354e-14                 0                              -1.2611495054932436e-22     0.96875000000000011  0                     0.96875000000000011   0                     0                    0                    0                    0                    0                      6                             0                           2                     0.99976636295758414  0.020341121056342636 -0.0073115178133764704       0                                 0                                   0                                 0                                1e-10                     
                      -1.2586880706572954e-22                          13                                          9.722577547335348                    1.9818931085593407e-14                 2.4614348359482155e-25            -1.2586880706572954e-22     0.96484375000000011  0                     0.96484375000000011   0                     0                    0                    0                    0                    0                      7                             1                           2                     0.9997476991134614   0.020383612480280085 -0.0094364431643250649       0                                 0                                   0                                 1.25e-11                         1.125e-10                 
                      -1.2511135653151887e-22                          15                                          9.6044647189383419                   2.0577703931857528e-14                 7.5745053421065109e-25            -1.2511135653151887e-22     0.95312500000000011  0                     0.95312500000000011   0                     0                    0                    0                    0                    0                      8                             2                           2                     0.99966543337611113  0.02051005844778998 -0.015759404031251312       0                                 0                                   0                                 3.75e-11                         1.5e-10                   
                      -3.2114405224567078e-20                          16                                          8.607727023555249                    2.4600508395505784e-14                -3.1989293868035561e-20            -1.2511135653151887e-22     0.95312500000000011  0                     0.95312500000000011   0                    -3.1989293868035561e-20  5                    5                    0                    0                      9                             0                           3                     0.99966543337611113  0.02051005844778998 -0.015759404031251312       0                                 0                                   0                                 0                                1.5e-10                   
                      -3.2114094119742443e-20                          18                                          8.5666586604342676                   2.5198331527281164e-14                 3.1110482463416162e-25            -1.2593971468970358e-22     0.94921875000000011  0                     0.94921875000000011   0                    -3.1988154405052739e-20  5                    5                    0                    0                      10                            1                           3                     0.999629825157898    0.020730817232873015 -0.017619474215976774       0                                 0                                   0                                 1.25e-11                         1.6250000000000001e-10       
                      -3.2113114707909903e-20                          20                                          8.4437911804949373                   2.7227973663981289e-14                 9.7941183254214522e-25            -1.2908432571408184e-22     0.93750000000000011  0                     0.93750000000000011   0                    -3.1984030382195821e-20  5                    5                    0                    0                      11                            2                           3                     0.99950094944361922  0.021514054285680304 -0.023130013607788522       0                                 0                                   0                                 3.75e-11                         2.0000000000000001e-10       
                      -6.4097145090105724e-20                          21                                          7.6433788816198831                   3.0081482570368158e-14                -3.1984030382195821e-20            -1.2908432571408184e-22     0.93750000000000011  0                     0.93750000000000011   0                    -6.3968060764391642e-20  10                   10                   0                    0                      12                            0                           4                     0.99950094944361922  0.021514054285680304 -0.023130013607788522       0                                 0                                   0                                 0                                2.0000000000000001e-10       
                      -6.4096761488193263e-20                          23                                          7.6026785072830538                   3.1333745597512916e-14                 3.8360191245809148e-25            -1.3187679193289281e-22     0.93359375000000011  0                     0.93359375000000011   0                    -6.3964884696260369e-20  10                   10                   0                    0                      13                            1                           4                     0.99945132337906817  0.022071429612199628 -0.024696238391767749       0                                 0                                   0                                 1.25e-11                         2.1250000000000002e-10       
                      -6.4095514414537354e-20                          25                                          7.4825371567231169                   3.5484842851366005e-14                 1.2470736559123017e-24            -1.4128235297813597e-22     0.92187500000000011  0                     0.92187500000000011   0                    -6.3954232061559212e-20  10                   10                   0                    0                      14                            2                           4                     0.99928487596186266  0.023946161521717958 -0.029262912060501498       0                                 0                                   0                                 3.75e-11                         2.5000000000000002e-10       
                      -1.4128235297813597e-22                          26                                          9.2888543915828308                   2.8771343516918171e-14                 6.3954232061559212e-20            -1.4128235297813597e-22     0.92187500000000011  0                     0.92187500000000011   0                     0                    0                    0                    0                    0                      15                            0                           5                     0.99928487596186266  0.023946161521717958 -0.029262912060501498       0                                 0                                   0                                 0                                2.5000000000000002e-10       
                      -1.409211945655171e-22                          28                                          9.2494858726907019                   2.9013928739091974e-14                 3.6115841261887846e-25            -1.409211945655171e-22     0.91796875000000011  0                     0.91796875000000011   0                     0                    0                    0                    0                    0                      16                            1                           5                     0.999222682582392    0.023986586309024182 -0.031283770394376055       0                                 0                                   0                                 1.25e-11                         2.6250000000000002e-10       
                      -1.3981963003730925e-22                          30                                          9.1313809106436921                   2.9735504593114957e-14                 1.1015645282078507e-24            -1.3981963003730925e-22     0.90625000000000011  0                     0.90625000000000011   0                     0                    0                    0                    0                    0                      17                            2                           5                     0.99901352047327863  0.024106832765053314 -0.037294054829475259       0                                 0                                   0                                 3.75e-11                         3e-10                     
                      -3.2108252285182226e-20                          31                                          8.1375079454662416                   3.3538984251664364e-14                -3.1968432655144918e-20            -1.3981963003730925e-22     0.90625000000000011  0                     0.90625000000000011   0                    -3.1968432655144918e-20  5                    5                    0                    0                      18                            0                           6                     0.99901352047327863  0.024106832765053314 -0.037294054829475259       0                                 0                                   0                                 0                                3e-10                     
                      -3.2107826602311759e-20                          33                                          8.097478098750992                    3.4590556136210191e-14                 4.2568287046892189e-25            -1.4183751637027733e-22     0.90234375000000011  0                     0.90234375000000011   0                    -3.196598908594148e-20  5                    5                    0                    0                      19                            1                           6                     0.99893715893567114  0.024560608895286117 -0.039004217569672872       0                                 0                                   0                                 1.25e-11                         3.1250000000000001e-10       
                      -3.2106469561178734e-20                          35                                          7.9781472854654352                   3.795968686496468e-14                 1.3570411330272155e-24            -1.4838591587939992e-22     0.89062500000000011  0                     0.89062500000000011   0                    -3.1958083645299331e-20  5                    5                    0                    0                      20                            2                           6                     0.99869011391560403  0.02603261682094735 -0.044049508835985969       0                                 0                                   0                                 3.75e-11                         3.5000000000000003e-10       
                      -1.9323236103059001e-20                          36                                          8.294837011371655                    3.6817631901080122e-14                 1.2783233458119733e-20            -1.4838591587939992e-22     0.89062500000000011  0                     0.89062500000000011   0                    -1.9174850187179601e-20  3.0000000000000004   3.0000000000000004   0                    0                      21                            0                           7                     0.99869011391560403  0.02603261682094735 -0.044049508835985969       0                                 0                                   0                                 0                                3.5000000000000003e-10       
                      -1.9322770894282911e-20                          38                                          8.2549155470125566                   3.7628006719574367e-14                 4.6520877608936499e-25            -1.4961908814417042e-22     0.88671875000000011  0                     0.88671875000000011   0                    -1.9173151806138739e-20  3.0000000000000004   3.0000000000000004   0                    0                      22                            1                           7                     0.99860165656972588  0.026364597029809762 -0.045821823617736596       0                                 0                                   0                                 1.25e-11                         3.6249999999999999e-10       
                      -1.9321313806607549e-20                          40                                          8.1354805791703146                   4.019093119766612e-14                 1.4570876753599125e-24            -1.5360324372854194e-22     0.87500000000000011  0                     0.87500000000000011   0                    -1.916771056287901e-20  3.0000000000000004   3.0000000000000004   0                    0                      23                            2                           7                     0.9983182584832816   0.027429150665811058 -0.051071483948090649       0                                 0                                   0                                 3.75e-11                         4.0000000000000001e-10       
                      -6.5428400980215444e-21                          41                                          8.5551661788193059                   3.8638604738885815e-14                 1.2778473708586006e-20            -1.5360324372854194e-22     0.87500000000000011  0                     0.87500000000000011   0                    -6.389236854293003e-21  1                    1                    0                    0                      24                            0                           8                     0.9983182584832816   0.027429150665811058 -0.051071483948090649       0                                 0                                   0                                 0                                4.0000000000000001e-10       
                      -6.542354309721706e-21                          43                                          8.5155008771638094                   3.9091599694209963e-14                 4.8578829983888658e-25            -1.5376196335372636e-22     0.87109375000000011  0                     0.87109375000000011   0                    -6.3885923463679792e-21  1                    1                    0                    0                      25                            1                           8                     0.99821755411999669  0.027580621229367955 -0.052924701031689149       0                                 0                                   0                                 1.25e-11                         4.1250000000000002e-10       
                      -6.540862781102078e-21                          45                                          8.3965539276615413                   4.0492847754368465e-14                 1.4915286196278345e-24            -1.5432091177619561e-22     0.85937500000000011  0                     0.85937500000000011   0                    -6.3865418693258826e-21  1                    1                    0                    0                      26                            2                           8                     0.99789716708216902  0.028058347595671926 -0.058429214093483742       0                                 0                                   0                                 3.75e-11                         4.5e-10                   
                      -6.540862781102078e-21                          46                                          8.3965539276615413                   4.0492847754368465e-14                 0                              -1.5432091177619561e-22     0.85937500000000011  0                     0.85937500000000011   0                    -6.3865418693258826e-21  1                    1                    0                    0                      27                            0                           9                     0.99789716708216902  0.028058347595671926 -0.058429214093483742       0                                 0                                   0                                 0                                4.5e-10                   
                      -6.5403536397067424e-21                          48                                          8.3569227621933084                   4.0973767488576033e-14                 5.0914139533575472e-25            -1.5453317801677496e-22     0.85546875000000011  0                     0.85546875000000011   0                    -6.385820461689967e-21  1                    1                    0                    0                      28                            1                           9                     0.99778444713905723  0.028225237993931496 -0.060245605545896738       0                                 0                                   0                                 1.25e-11                         4.6250000000000001e-10       
                      -6.538789963443221e-21                          50                                          8.2380851822100052                   4.2457794586177455e-14                 1.5636762635212546e-24            -1.5524316146352036e-22     0.84375000000000011  0                     0.84375000000000011   0                    -6.3835468019797008e-21  1                    1                    0                    0                      29                            2                           9                     0.9974291878093281   0.028748733604355616 -0.065639360312010245       0                                 0                                   0                                 3.75e-11                         5.0000000000000003e-10       
                      -6.538789963443221e-21                          51                                          8.2380851822100052                   4.2457794586177455e-14                 0                              -1.5524316146352036e-22     0.84375000000000011  0                     0.84375000000000011   0                    -6.3835468019797008e-21  1                    1                    0                    0                      30                            0                           10                    0.9974291878093281   0.028748733604355616 -0.065639360312010245       0                                 0                                   0                                 0                                5.0000000000000003e-10       
                      -6.5382560893061051e-21                          53                                          8.1984928519961251                   4.2965974615554947e-14                 5.3387413711616237e-25            -1.5550260104886364e-22     0.83984375000000011  0                     0.83984375000000011   0                    -6.382753488257241e-21  1                    1                    0                    0                      31                            1                           10                    0.99730523254019376  0.028930716474207186 -0.067418742143702165       0                                 0                                   0                                 1.25e-11                         5.1250000000000004e-10       
                      -6.5366161763356588e-21                          55                                          8.0797791764919022                   4.4530783104755754e-14                 1.6399129704457553e-24            -1.5634468382202176e-22     0.82812500000000011  0                     0.82812500000000011   0                    -6.3802714925136373e-21  1                    1                    0                    0                      32                            2                           10                    0.99691742070525569  0.029498996947551273 -0.072701206822642098       0                                 0                                   0                                 3.75e-11                         5.5000000000000007e-10       
# Table End
