# ODT 1.0
# Table Start
# Title: mmArchive Data Table, Wed Jun 16 18:51:20 EDT 2010
# Columns: {Oxs_RungeKuttaEvolve:evolve:Total energy} {Oxs_RungeKuttaEvolve:evolve:Energy calc count} {Oxs_RungeKuttaEvolve:evolve:Max dm/dt} Oxs_RungeKuttaEvolve:evolve:dE/dt {Oxs_RungeKuttaEvolve:evolve:Delta E} Oxs_ScriptUZeeman::Energy Oxs_ScriptUZeeman::B Oxs_ScriptUZeeman::Bx Oxs_ScriptUZeeman::By Oxs_ScriptUZeeman::Bz Oxs_UZeeman::Energy  Oxs_UZeeman::B       Oxs_UZeeman::Bx      Oxs_UZeeman::By      Oxs_UZeeman::Bz      Oxs_TimeDriver::Iteration {Oxs_TimeDriver::Stage iteration} Oxs_TimeDriver::Stage Oxs_TimeDriver::mx   Oxs_TimeDriver::my   Oxs_TimeDriver::mz   {Oxs_TimeDriver::Max Spin Ang} {Oxs_TimeDriver::Stage Max Spin Ang} {Oxs_TimeDriver::Run Max Spin Ang} {Oxs_TimeDriver::Last time step} {Oxs_TimeDriver::Simulation time}
# Units:                       J                                            {}                                        deg/ns                                 J/s                                  J                               J                      mT                   mT                    mT                    mT                    J                 mT                   mT                   mT                   mT                        {}                            {}                          {}                   {}                   {}                   {}                        deg                               deg                                 deg                                s                                 s                
                      -1.279680119950022e-21                          1                                           100.7692059977275                    1.054649560725613e-11                 0                              -1.279680119950022e-21     10                   0                     10                    0                     0                    0                    0                    0                    0                      0                             0                           0                     0.99975009371095458  0.019995001874219091  0.0099975009371095457       0                                 0                                   0                                 0                                0                         
                      -1.1526483437426455e-21                          7                                           88.927769647466263                   9.7739729460815128e-12                 1.2703177620737643e-22            -1.1526483437426455e-21     8.8249690258459541   0                     8.8249690258459541    0                     0                    0                    0                    0                    0                      1                             1                           0                     0.99973486001608824  0.020408151369406533 -0.010663818560714629       0                                 0                                   0                                 1.25e-11                         1.25e-11                  
                      -8.2986752329751916e-22                          13                                          61.117863096403106                   7.4708814718687306e-12                 3.2278082044512642e-22            -8.2986752329751916e-22     6.0653065971263347   0                     6.0653065971263347    0                     0                    0                    0                    0                    0                      2                             2                           0                     0.99801993316742943  0.021378441211310217 -0.059153827026273087       0                                 0                                   0                                 3.75e-11                         5.0000000000000002e-11       
                      -8.2986752329751916e-22                          14                                          61.117863096403106                   7.4708814718687306e-12                 0                              -8.2986752329751916e-22     6.0653065971263347   0                     6.0653065971263347    0                     0                    0                    0                    0                    0                      3                             0                           1                     0.99801993316742943  0.021378441211310217 -0.059153827026273087       0                                 0                                   0                                 0                                5.0000000000000002e-11       
                      -5.2309513551301752e-22                          20                                          37.069179508350231                   4.9264341934936558e-12                 3.0677238778450169e-22            -5.2309513551301752e-22     3.6787944117144238   0                     3.6787944117144238    0                     0                    0                    0                    0                    0                      4                             1                           1                     0.99464061610506649  0.022217500022193078 -0.10097736125933127       0                                 0                                   0                                 5.0000000000000002e-11              1e-10                     
                      -5.2309513551301752e-22                          21                                          37.069179508350231                   4.9264341934936558e-12                 0                              -5.2309513551301752e-22     3.6787944117144238   0                     3.6787944117144238    0                     0                    0                    0                    0                    0                      5                             0                           2                     0.99464061610506649  0.022217500022193078 -0.10097736125933127       0                                 0                                   0                                 0                                1e-10                     
                      -3.2454049399380029e-22                          27                                          22.483336652058181                   3.1333819001961949e-12                 1.9855464151921725e-22            -3.2454049399380029e-22     2.2313016014842981   0                     2.2313016014842981    0                     0                    0                    0                    0                    0                      6                             1                           2                     0.99173658374213591  0.022726399762720798 -0.12626186764539146       0                                 0                                   0                                 5.0000000000000002e-11              1.5e-10                   
                      -3.2060111173742155e-20                          28                                          22.27580416977916                    3.1354404133588668e-12                -3.1735570679748356e-20            -3.2454049399380029e-22     2.2313016014842981   0                     2.2313016014842981    0                    -3.1735570679748356e-20  5                    5                    0                    0                      7                             0                           3                     0.99173658374213591  0.022726399762720798 -0.12626186764539146       0                                 0                                   0                                 0                                1.5e-10                   
                      -3.2021971724636773e-20                          34                                          19.758513999223197                   2.9664596180987587e-12                 3.8139449105380272e-23            -3.0529752101809113e-22     1.9691167520419408   0                     1.9691167520419408    0                    -3.1716674203618685e-20  5                    5                    0                    0                      8                             1                           3                     0.99114606886308376  0.024225449105346245 -0.13054730097899209       0                                 0                                   0                                 1.25e-11                         1.6250000000000001e-10       
                      -3.1920282405067726e-20                          40                                          14.095986808214287                   2.4593040573625793e-12                 1.0168931956904727e-22            -2.5033369073337593e-22     1.353352832366127    0                     1.353352832366127     0                    -3.1669948714334349e-20  5                    5                    0                    0                      9                             2                           3                     0.98968589732294832  0.028902026316894848 -0.14030857961952303       0                                 0                                   0                                 3.75e-11                         2.0000000000000001e-10       
                      -6.3590231119402081e-20                          41                                          17.768658224428567                   2.4333696107135184e-12                -3.1669948714334349e-20            -2.5033369073337593e-22     1.353352832366127    0                     1.353352832366127     0                    -6.3339897428668698e-20  10                   10                   0                    0                      10                            0                           4                     0.98968589732294832  0.028902026316894848 -0.14030857961952303       0                                 0                                   0                                 0                                2.0000000000000001e-10       
                      -6.3560077897359396e-20                          47                                          16.854605530714579                   2.3870384003200589e-12                 3.0153222042681512e-23            -2.4499923541999685e-22     1.1943296826671963   0                     1.1943296826671963    0                    -6.3315078661939399e-20  10                   10                   0                    0                      11                            1                           4                     0.98929810409280305  0.032052398169393613 -0.14234431850262291       0                                 0                                   0                                 1.25e-11                         2.1250000000000002e-10       
                      -6.3474844246898705e-20                          53                                          15.312597844748684                   2.1370592535079988e-12                 8.5233650460695377e-23            -2.1890209808648611e-22     0.82084998623898808  0                     0.82084998623898808   0                    -6.3255942148812211e-20  10                   10                   0                    0                      12                            2                           4                     0.98837409607519078  0.0416683357488115  -0.1462203679501386        0                                 0                                   0                                 3.75e-11                         2.5000000000000002e-10       
                      -2.1890209808648611e-22                          54                                          8.26610875832875                     2.1738788130015681e-12                 6.3255942148812211e-20            -2.1890209808648611e-22     0.82084998623898808  0                     0.82084998623898808   0                     0                    0                    0                    0                    0                      13                            0                           5                     0.98837409607519078  0.0416683357488115  -0.1462203679501386        0                                 0                                   0                                 0                                2.5000000000000002e-10       
                      -1.9333744171340563e-22                          60                                          7.2948050588547657                   1.9215817183007843e-12                 2.5564656373080486e-23            -1.9333744171340563e-22     0.72439757034251429  0                     0.72439757034251429   0                     0                    0                    0                    0                    0                      14                            1                           5                     0.98812323408744818  0.041702204016830183 -0.14789658696772154       0                                 0                                   0                                 1.25e-11                         2.6250000000000002e-10       
                      -1.3313220193605762e-22                          66                                          5.0136246322588516                   1.3257515799203631e-12                 6.0205239777348025e-23            -1.3313220193605762e-22     0.49787068367863951  0                     0.49787068367863951   0                     0                    0                    0                    0                    0                      15                            2                           5                     0.98752288139320821  0.041781746213311891 -0.15183163177751197       0                                 0                                   0                                 3.75e-11                         3e-10                     
                      -3.1733864406518728e-20                          67                                          8.2004568600213936                   1.3164194235441977e-12                -3.1600732204582667e-20            -1.3313220193605762e-22     0.49787068367863951  0                     0.49787068367863951   0                    -3.1600732204582667e-20  5                    5                    0                    0                      16                            0                           6                     0.98752288139320821  0.041781746213311891 -0.15183163177751197       0                                 0                                   0                                 0                                3e-10                     
                      -3.1718094236914115e-20                          73                                          8.0099512380149083                   1.2080006899391249e-12                 1.5770169604609371e-23            -1.222218921101101e-22     0.43936933623407426  0                     0.43936933623407426   0                    -3.1595872344804007e-20  5                    5                    0                    0                      17                            1                           6                     0.98737101077512501  0.043464960039975742 -0.15234593637386987       0                                 0                                   0                                 1.25e-11                         3.1250000000000001e-10       
                      -3.167830140433752e-20                          79                                          7.7504042079041948                   9.2445362353757824e-13                 3.9792832576597842e-23            -9.3776535451250699e-23     0.30197383422318486  0                     0.30197383422318486   0                    -3.1584524868886269e-20  5                    5                    0                    0                      18                            2                           6                     0.9870164021526957   0.048522693040445319 -0.15311489196564373       0                                 0                                   0                                 3.75e-11                         3.5000000000000003e-10       
                      -1.9044491456783012e-20                          80                                          4.9003433711423616                   9.3244379588392825e-13                 1.2633809947554507e-20            -9.3776535451250699e-23     0.30197383422318486  0                     0.30197383422318486   0                    -1.8950714921331761e-20  3.0000000000000004   3.0000000000000004   0                    0                      19                            0                           7                     0.9870164021526957   0.048522693040445319 -0.15311489196564373       0                                 0                                   0                                 0                                3.5000000000000003e-10       
                      -1.9033424407455546e-20                          86                                          4.7968176686520785                   8.3981883789630199e-13                 1.1067049327463338e-23            -8.4491792285423943e-23     0.26649097336355487  0                     0.26649097336355487   0                    -1.8948932615170124e-20  3.0000000000000004   3.0000000000000004   0                    0                      20                            1                           7                     0.98692357370677719  0.049539548668266313 -0.15338739446117494       0                                 0                                   0                                 1.25e-11                         3.6249999999999999e-10       
                      -1.9006424932169172e-20                          92                                          4.6637061614715094                   6.1162256368598822e-13                 2.6999475286376811e-23            -6.1644257642139446e-23     0.18315638888734179  0                     0.18315638888734179   0                    -1.8944780674527031e-20  3.0000000000000004   3.0000000000000004   0                    0                      21                            2                           7                     0.98670732679828277  0.052588475428551995 -0.15376314088456769       0                                 0                                   0                                 3.75e-11                         4.0000000000000001e-10       
                      -6.37657114915115e-21                          93                                          2.0372014112901695                   6.1552286037655358e-13                 1.2629853783018021e-20            -6.1644257642139446e-23     0.18315638888734179  0                     0.18315638888734179   0                    -6.3149268915090106e-21  1                    1                    0                    0                      22                            0                           8                     0.98670732679828277  0.052588475428551995 -0.15376314088456769       0                                 0                                   0                                 0                                4.0000000000000001e-10       
                      -6.3693153168941377e-21                          99                                          1.904140938650595                    5.4675941959921546e-13                 7.2558322570121309e-24            -5.4756291613195722e-23     0.16163494588165875  0                     0.16163494588165875   0                    -6.3145590252809424e-21  1                    1                    0                    0                      23                            1                           8                     0.98664984770014708  0.052932059449729868 -0.15401387962026947       0                                 0                                   0                                 1.25e-11                         4.1250000000000002e-10       
                      -6.3520623685462481e-21                          105                                         1.6642574019558034                   3.8303194394568253e-13                 1.7252948347889409e-23            -3.8364574385603772e-23     0.11108996538242308  0                     0.11108996538242308   0                    -6.3136977941606446e-21  1                    1                    0                    0                      24                            2                           8                     0.98651528033760061  0.053960452027461407 -0.15451819076541554       0                                 0                                   0                                 3.75e-11                         4.5e-10                   
                      -6.3520623685462481e-21                          106                                         1.6642574019558034                   3.8303194394568253e-13                 0                              -3.8364574385603772e-23     0.11108996538242308  0                     0.11108996538242308   0                    -6.3136977941606446e-21  1                    1                    0                    0                      25                            0                           9                     0.98651528033760061  0.053960452027461407 -0.15451819076541554       0                                 0                                   0                                 0                                4.5e-10                   
                      -6.3368201851238841e-21                          112                                         1.5674683292899543                   2.3803915956487141e-13                 1.5242183422364458e-23            -2.3858364137505467e-23     0.067379469990854673  0                     0.067379469990854673   0                    -6.3129618209863787e-21  1                    1                    0                    0                      26                            1                           9                     0.98640028452912154  0.05532648738541885 -0.15476904882585285       0                                 0                                   0                                 5.0000000000000002e-11              5.0000000000000003e-10       
                      -6.3368201851238841e-21                          113                                         1.5674683292899543                   2.3803915956487141e-13                 0                              -2.3858364137505467e-23     0.067379469990854673  0                     0.067379469990854673   0                    -6.3129618209863787e-21  1                    1                    0                    0                      27                            0                           10                    0.98640028452912154  0.05532648738541885 -0.15476904882585285       0                                 0                                   0                                 0                                5.0000000000000003e-10       
                      -6.3273538535423425e-21                          119                                         1.5693147565026562                   1.4772095897892607e-13                 9.4663315815416369e-24            -1.482667243087122e-23     0.040867714384640631  0                     0.040867714384640631   0                    -6.3125271811114708e-21  1                    1                    0                    0                      28                            1                           10                    0.98633237204866719  0.056686986346226986 -0.15470952597636697       0                                 0                                   0                                 5.0000000000000002e-11              5.5000000000000007e-10       
# Table End
