# ODT 1.0
# Table Start
# Title: mmArchive Data Table, Wed Jun 16 18:51:18 EDT 2010
# Columns: {Oxs_RungeKuttaEvolve:evolve:Total energy} {Oxs_RungeKuttaEvolve:evolve:Energy calc count} {Oxs_RungeKuttaEvolve:evolve:Max dm/dt} Oxs_RungeKuttaEvolve:evolve:dE/dt {Oxs_RungeKuttaEvolve:evolve:Delta E} Oxs_ScriptUZeeman::Energy Oxs_ScriptUZeeman::B Oxs_ScriptUZeeman::Bx Oxs_ScriptUZeeman::By Oxs_ScriptUZeeman::Bz Oxs_UZeeman::Energy  Oxs_UZeeman::B       Oxs_UZeeman::Bx      Oxs_UZeeman::By      Oxs_UZeeman::Bz      Oxs_TimeDriver::Iteration {Oxs_TimeDriver::Stage iteration} Oxs_TimeDriver::Stage Oxs_TimeDriver::mx   Oxs_TimeDriver::my   Oxs_TimeDriver::mz   {Oxs_TimeDriver::Max Spin Ang} {Oxs_TimeDriver::Stage Max Spin Ang} {Oxs_TimeDriver::Run Max Spin Ang} {Oxs_TimeDriver::Last time step} {Oxs_TimeDriver::Simulation time}
# Units:                       J                                            {}                                        deg/ns                                 J/s                                  J                               J                      mT                   mT                    mT                    mT                    J                 mT                   mT                   mT                   mT                        {}                            {}                          {}                   {}                   {}                   {}                        deg                               deg                                 deg                                s                                 s                
                      -1.279680119950022e-21                          1                                           100.7692059977275                    1.054649560725613e-11                 0                              -1.279680119950022e-21     10                   0                     10                    0                     0                    0                    0                    0                    0                      0                             0                           0                     0.99975009371095458  0.019995001874219091  0.0099975009371095457       0                                 0                                   0                                 0                                0                         
                      -1.1526483437755462e-21                          7                                           88.927769647465212                   9.7739729464105595e-12                 1.2703177617447594e-22            -1.1526483437755462e-21     8.8249690258459541   0                     8.8249690258459541    0                     0                    0                    0                    0                    0                      1                             1                           0                     0.99973486001600365  0.020408151369989053 -0.010663818567534792       0                                 0                                   0                                 1.25e-11                         1.25e-11                  
                      -8.2986753295629942e-22                          13                                          61.117863096077848                   7.4708815684653445e-12                 3.227808108192467e-22            -8.2986753295629942e-22     6.0653065971263347   0                     6.0653065971263347    0                     0                    0                    0                    0                    0                      2                             2                           0                     0.99801993306087522  0.021378441460132663 -0.059153828734088934       0                                 0                                   0                                 3.75e-11                         5.0000000000000002e-11       
                      -8.2986753295629942e-22                          14                                          61.117863096077848                   7.4708815684653445e-12                 0                              -8.2986753295629942e-22     6.0653065971263347   0                     6.0653065971263347    0                     0                    0                    0                    0                    0                      3                             0                           1                     0.99801993306087522  0.021378441460132663 -0.059153828734088934       0                                 0                                   0                                 0                                5.0000000000000002e-11       
                      -5.2309515474445436e-22                          20                                          37.069179507677184                   4.9264343858190823e-12                 3.0677237821184506e-22            -5.2309515474445436e-22     3.6787944117144238   0                     3.6787944117144238    0                     0                    0                    0                    0                    0                      4                             1                           1                     0.99464061601092946  0.02221750083901285 -0.10097736200687343       0                                 0                                   0                                 5.0000000000000002e-11              1e-10                     
                      -5.2309515474445436e-22                          21                                          37.069179507677184                   4.9264343858190823e-12                 0                              -5.2309515474445436e-22     3.6787944117144238   0                     3.6787944117144238    0                     0                    0                    0                    0                    0                      5                             0                           2                     0.99464061601092946  0.02221750083901285 -0.10097736200687343       0                                 0                                   0                                 0                                1e-10                     
                      -3.2454050838422118e-22                          27                                          22.483336651543013                   3.1333820441055377e-12                 1.9855464636023316e-22            -3.2454050838422118e-22     2.2313016014842981   0                     2.2313016014842981    0                     0                    0                    0                    0                    0                      6                             1                           2                     0.99173658395004738  0.02272640077043005 -0.12626186583094848       0                                 0                                   0                                 5.0000000000000002e-11              1.5e-10                   
                      -3.2060111194785739e-20                          28                                          22.27580409466518                    3.1354405580046766e-12                -3.1735570686401517e-20            -3.2454050838422118e-22     2.2313016014842981   0                     2.2313016014842981    0                    -3.1735570686401517e-20  5                    5                    0                    0                      7                             0                           3                     0.99173658395004738  0.02272640077043005 -0.12626186583094848       0                                 0                                   0                                 0                                1.5e-10                   
                      -3.2021971743997954e-20                          34                                          19.758513921402532                   2.9664597431993464e-12                 3.8139450787789241e-23            -3.0529753346000002e-22     1.9691167520419408   0                     1.9691167520419408    0                    -3.171667421053795e-20  5                    5                    0                    0                      8                             1                           3                     0.99114606907931091  0.024225450092615418 -0.13054729915413846       0                                 0                                   0                                 1.25e-11                         1.6250000000000001e-10       
                      -3.1920282421761356e-20                          40                                          14.095986714459938                   2.4593041259865762e-12                 1.0168932223659424e-22            -2.5033369753720193e-22     1.353352832366127    0                     1.353352832366127     0                    -3.1669948724224156e-20  5                    5                    0                    0                      9                             2                           3                     0.98968589763200476  0.028902027102423785 -0.1403085772777409        0                                 0                                   0                                 3.75e-11                         2.0000000000000001e-10       
                      -6.3590231145985512e-20                          41                                          17.768657988480594                   2.4333696806099542e-12                -3.1669948724224156e-20            -2.5033369753720193e-22     1.353352832366127    0                     1.353352832366127     0                    -6.3339897448448312e-20  10                   10                   0                    0                      10                            0                           4                     0.98968589763200476  0.028902027102423785 -0.1403085772777409        0                                 0                                   0                                 0                                2.0000000000000001e-10       
                      -6.3560077923153508e-20                          47                                          16.85460528947095                    2.3870384581725693e-12                 3.0153222832000878e-23            -2.4499924102503317e-22     1.1943296826671963   0                     1.1943296826671963    0                    -6.3315078682128477e-20  10                   10                   0                    0                      11                            1                           4                     0.98929810440825738  0.03205239890268103 -0.14234431614508575       0                                 0                                   0                                 1.25e-11                         2.1250000000000002e-10       
                      -6.3474844275762016e-20                          53                                          15.312597548013995                   2.1370592777019234e-12                 8.5233647391499046e-23            -2.1890210030449085e-22     0.82084998623898808  0                     0.82084998623898808   0                    -6.3255942175457524e-20  10                   10                   0                    0                      12                            2                           4                     0.98837409649152363  0.041668336171011955 -0.14622036501562904       0                                 0                                   0                                 3.75e-11                         2.5000000000000002e-10       
                      -2.1890210030449085e-22                          54                                          8.2661087581830763                   2.1738788351821492e-12                 6.3255942175457524e-20            -2.1890210030449085e-22     0.82084998623898808  0                     0.82084998623898808   0                     0                    0                    0                    0                    0                      13                            0                           5                     0.98837409649152363  0.041668336171011955 -0.14622036501562904       0                                 0                                   0                                 0                                2.5000000000000002e-10       
                      -1.9333744367080316e-22                          60                                          7.2948050587261033                   1.9215817378751755e-12                 2.5564656633687699e-23            -1.9333744367080316e-22     0.72439757034251429  0                     0.72439757034251429   0                     0                    0                    0                    0                    0                      14                            1                           5                     0.98812323450877904  0.041702204439033927 -0.147896584033687         0                                 0                                   0                                 1.25e-11                         2.6250000000000002e-10       
                      -1.3313220328505131e-22                          66                                          5.0136246321700115                   1.3257515934104977e-12                 6.0205240385751833e-23            -1.3313220328505131e-22     0.49787068367863951  0                     0.49787068367863951   0                     0                    0                    0                    0                    0                      15                            2                           5                     0.98752288184711945  0.041781746636675381 -0.15183162870874015       0                                 0                                   0                                 3.75e-11                         3e-10                     
                      -3.1733864422392881e-20                          67                                          8.2004567076705346                   1.3164194375878658e-12                -3.1600732219107826e-20            -1.3313220328505131e-22     0.49787068367863951  0                     0.49787068367863951   0                    -3.1600732219107826e-20  5                    5                    0                    0                      16                            0                           6                     0.98752288184711945  0.041781746636675381 -0.15183162870874015       0                                 0                                   0                                 0                                3e-10                     
                      -3.1718094252629974e-20                          73                                          8.0099510836726893                   1.208000701438432e-12                 1.5770169762904461e-23            -1.2222189320524712e-22     0.43936933623407426  0                     0.43936933623407426   0                    -3.1595872359424728e-20  5                    5                    0                    0                      17                            1                           6                     0.98737101123202264  0.043464960429432049 -0.15234593330155213       0                                 0                                   0                                 1.25e-11                         3.1250000000000001e-10       
                      -3.1678301420286549e-20                          79                                          7.7504040462297787                   9.2445362893862174e-13                 3.9792832343423644e-23            -9.3776535935818164e-23     0.30197383422318486  0                     0.30197383422318486   0                    -3.1584524884350734e-20  5                    5                    0                    0                      18                            2                           6                     0.98701640263596024  0.048522693291174548 -0.15311488877094395       0                                 0                                   0                                 3.75e-11                         3.5000000000000003e-10       
                      -1.9044491466546258e-20                          80                                          4.9003432770386954                   9.3244380093398787e-13                 1.2633809953740293e-20            -9.3776535935818164e-23     0.30197383422318486  0                     0.30197383422318486   0                    -1.895071493061044e-20  3.0000000000000004   3.0000000000000004   0                    0                      19                            0                           7                     0.98701640263596024  0.048522693291174548 -0.15311488877094395       0                                 0                                   0                                 0                                3.5000000000000003e-10       
                      -1.9033424417161938e-20                          86                                          4.7968175731328273                   8.3981884201525876e-13                 1.1067049384319106e-23            -8.4491792677011956e-23     0.26649097336355487  0                     0.26649097336355487   0                    -1.8948932624484926e-20  3.0000000000000004   3.0000000000000004   0                    0                      20                            1                           7                     0.98692357419192311  0.049539548897863689 -0.15338739126550047       0                                 0                                   0                                 1.25e-11                         3.6249999999999999e-10       
                      -1.9006424941930901e-20                          92                                          4.6637060628059652                   6.1162256567136658e-13                 2.6999475231036512e-23            -6.1644257820282806e-23     0.18315638888734179  0                     0.18315638888734179   0                    -1.8944780684110621e-20  3.0000000000000004   3.0000000000000004   0                    0                      21                            2                           7                     0.98670732729742794  0.052588475580525401 -0.15376313762954638       0                                 0                                   0                                 3.75e-11                         4.0000000000000001e-10       
                      -6.3765711525238227e-21                          93                                          2.0372013851085295                   6.1552286218162717e-13                 1.262985378940708e-20            -6.1644257820282806e-23     0.18315638888734179  0                     0.18315638888734179   0                    -6.31492689470354e-21  1                    1                    0                    0                      22                            0                           8                     0.98670732729742794  0.052588475580525401 -0.15376313762954638       0                                 0                                   0                                 0                                4.0000000000000001e-10       
                      -6.369315320246118e-21                          99                                          1.9041409108429326                   5.4675942112063224e-13                 7.2558322777048164e-24            -5.4756291762990589e-23     0.16163494588165875  0                     0.16163494588165875   0                    -6.3145590284831274e-21  1                    1                    0                    0                      23                            1                           8                     0.98664984820048851  0.052932059594534245 -0.15401387636519526       0                                 0                                   0                                 1.25e-11                         4.1250000000000002e-10       
                      -6.3520623718838802e-21                          105                                         1.6642573703619887                   3.8303194482299734e-13                 1.7252948362237784e-23            -3.8364574471004812e-23     0.11108996538242308  0                     0.11108996538242308   0                    -6.3136977974128753e-21  1                    1                    0                    0                      24                            2                           8                     0.98651528084576168  0.053960452147579475 -0.15451818747913409       0                                 0                                   0                                 3.75e-11                         4.5e-10                   
                      -6.3520623718838802e-21                          106                                         1.6642573703619887                   3.8303194482299734e-13                 0                              -3.8364574471004812e-23     0.11108996538242308  0                     0.11108996538242308   0                    -6.3136977974128753e-21  1                    1                    0                    0                      25                            0                           9                     0.98651528084576168  0.053960452147579475 -0.15451818747913409       0                                 0                                   0                                 0                                4.5e-10                   
                      -6.3368201885433712e-21                          112                                         1.5674682950050474                   2.3803915992984496e-13                 1.5242183340509073e-23            -2.3858364171620955e-23     0.067379469990854673  0                     0.067379469990854673   0                    -6.3129618243717498e-21  1                    1                    0                    0                      26                            1                           9                     0.98640028505808586  0.05532648746453115 -0.15476904542628708       0                                 0                                   0                                 5.0000000000000002e-11              5.0000000000000003e-10       
                      -6.3368201885433712e-21                          113                                         1.5674682950050474                   2.3803915992984496e-13                 0                              -2.3858364171620955e-23     0.067379469990854673  0                     0.067379469990854673   0                    -6.3129618243717498e-21  1                    1                    0                    0                      27                            0                           10                    0.98640028505808586  0.05532648746453115 -0.15476904542628708       0                                 0                                   0                                 0                                5.0000000000000003e-10       
                      -6.3273538570193148e-21                          119                                         1.5693147217344128                   1.4772095911225686e-13                 9.4663315240559694e-24            -1.4826672441786008e-23     0.040867714384640631  0                     0.040867714384640631   0                    -6.3125271845775293e-21  1                    1                    0                    0                      28                            1                           10                    0.98633237259023876  0.056686986387957619 -0.15470952250835074       0                                 0                                   0                                 5.0000000000000002e-11              5.5000000000000007e-10       
# Table End
