# ODT 1.0
# Table Start
# Title: mmArchive Data Table, Wed Jun 16 18:51:15 EDT 2010
# Columns: {Oxs_RungeKuttaEvolve:evolve:Total energy} {Oxs_RungeKuttaEvolve:evolve:Energy calc count} {Oxs_RungeKuttaEvolve:evolve:Max dm/dt} Oxs_RungeKuttaEvolve:evolve:dE/dt {Oxs_RungeKuttaEvolve:evolve:Delta E} Oxs_ScriptUZeeman::Energy Oxs_ScriptUZeeman::B Oxs_ScriptUZeeman::Bx Oxs_ScriptUZeeman::By Oxs_ScriptUZeeman::Bz Oxs_UZeeman::Energy  Oxs_UZeeman::B       Oxs_UZeeman::Bx      Oxs_UZeeman::By      Oxs_UZeeman::Bz      Oxs_TimeDriver::Iteration {Oxs_TimeDriver::Stage iteration} Oxs_TimeDriver::Stage Oxs_TimeDriver::mx   Oxs_TimeDriver::my   Oxs_TimeDriver::mz   {Oxs_TimeDriver::Max Spin Ang} {Oxs_TimeDriver::Stage Max Spin Ang} {Oxs_TimeDriver::Run Max Spin Ang} {Oxs_TimeDriver::Last time step} {Oxs_TimeDriver::Simulation time}
# Units:                       J                                            {}                                        deg/ns                                 J/s                                  J                               J                      mT                   mT                    mT                    mT                    J                 mT                   mT                   mT                   mT                        {}                            {}                          {}                   {}                   {}                   {}                        deg                               deg                                 deg                                s                                 s                
                      -1.279680119950022e-21                          1                                           100.7692059977275                    1.054649560725613e-11                 0                              -1.279680119950022e-21     10                   0                     10                    0                     0                    0                    0                    0                    0                      0                             0                           0                     0.99975009371095458  0.019995001874219091  0.0099975009371095457       0                                 0                                   0                                 0                                0                         
                      -1.1526483438302105e-21                          12                                          88.92776964746345                    9.7739729469572709e-12                 1.270317761198117e-22            -1.1526483438302105e-21     8.8249690258459541   0                     8.8249690258459541    0                     0                    0                    0                    0                    0                      1                             1                           0                     0.9997348600158712   0.020408151370956907 -0.010663818578091289       0                                 0                                   0                                 1.25e-11                         1.25e-11                  
                      -8.2986753662336727e-22                          23                                          61.117863095954355                   7.4708816051393679e-12                 3.2278080720684309e-22            -8.2986753662336727e-22     6.0653065971263347   0                     6.0653065971263347    0                     0                    0                    0                    0                    0                      2                             2                           0                     0.99801993259460087  0.021378441554600988 -0.059153836566741516       0                                 0                                   0                                 3.75e-11                         5.0000000000000002e-11       
                      -8.2986753662336727e-22                          24                                          61.117863095954355                   7.4708816051393679e-12                 0                              -8.2986753662336727e-22     6.0653065971263347   0                     6.0653065971263347    0                     0                    0                    0                    0                    0                      3                             0                           1                     0.99801993259460087  0.021378441554600988 -0.059153836566741516       0                                 0                                   0                                 0                                5.0000000000000002e-11       
                      -5.2309516809676718e-22                          35                                          37.069179507209881                   4.9264345193498873e-12                 3.0677236852660014e-22            -5.2309516809676718e-22     3.6787944117144238   0                     3.6787944117144238    0                     0                    0                    0                    0                    0                      4                             1                           1                     0.99464061085695277  0.022217501406127681 -0.10097741264944622       0                                 0                                   0                                 5.0000000000000002e-11              1e-10                     
                      -5.2309516809676718e-22                          36                                          37.069179507209881                   4.9264345193498873e-12                 0                              -5.2309516809676718e-22     3.6787944117144238   0                     3.6787944117144238    0                     0                    0                    0                    0                    0                      5                             0                           2                     0.99464061085695277  0.022217501406127681 -0.10097741264944622       0                                 0                                   0                                 0                                1e-10                     
                      -3.2454052309558616e-22                          47                                          22.483336651016351                   3.1333821912244358e-12                 1.9855464500118097e-22            -3.2454052309558616e-22     2.2313016014842981   0                     2.2313016014842981    0                     0                    0                    0                    0                    0                      6                             1                           2                     0.99173657335959331  0.022726401800613857 -0.12626194882928543       0                                 0                                   0                                 5.0000000000000002e-11              1.5e-10                   
                      -3.2060110870602576e-20                          48                                          22.275805251820007                   3.1354406936937344e-12                -3.1735570347506988e-20            -3.2454052309558616e-22     2.2313016014842981   0                     2.2313016014842981    0                    -3.1735570347506988e-20  5                    5                    0                    0                      7                             0                           3                     0.99173657335959331  0.022726401800613857 -0.12626194882928543       0                                 0                                   0                                 0                                1.5e-10                   
                      -3.1920282055256882e-20                          59                                          14.095988772813058                   2.459305169834871e-12                 1.3982881534569279e-22            -2.5033380320800253e-22     1.353352832366127    0                     1.353352832366127     0                    -3.1669948252048883e-20  5                    5                    0                    0                      8                             1                           3                     0.98968588287652737  0.028902039302540563 -0.14030867884440695       0                                 0                                   0                                 5.0000000000000002e-11              2.0000000000000001e-10       
                      -6.3590230307305758e-20                          60                                          17.768665432392588                   2.4333706786944565e-12                -3.1669948252048883e-20            -2.5033380320800253e-22     1.353352832366127    0                     1.353352832366127     0                    -6.3339896504097765e-20  10                   10                   0                    0                      9                             0                           4                     0.98968588287652737  0.028902039302540563 -0.14030867884440695       0                                 0                                   0                                 0                                2.0000000000000001e-10       
                      -6.3474843310261882e-20                          71                                          15.31260747401601                    2.1370606898221203e-12                 1.1538699704387894e-22            -2.1890224825308616e-22     0.82084998623898808  0                     0.82084998623898808   0                    -6.32559410620088e-20  10                   10                   0                    0                      10                            1                           4                     0.9883740790938873   0.041668364333244286 -0.14622047458923854       0                                 0                                   0                                 5.0000000000000002e-11              2.5000000000000002e-10       
                      -2.1890224825308616e-22                          72                                          8.2661087484661433                   2.1738803147037018e-12                 6.32559410620088e-20            -2.1890224825308616e-22     0.82084998623898808  0                     0.82084998623898808   0                     0                    0                    0                    0                    0                      11                            0                           5                     0.9883740790938873   0.041668364333244286 -0.14622047458923854       0                                 0                                   0                                 0                                2.5000000000000002e-10       
                      -1.3313229349538087e-22                          83                                          5.0136246262290447                   1.3257524955269947e-12                 8.5769954757705292e-23            -1.3313229349538087e-22     0.49787068367863951  0                     0.49787068367863951   0                     0                    0                    0                    0                    0                      12                            1                           5                     0.98752286264303302  0.041781774947970772 -0.1518317458224944        0                                 0                                   0                                 5.0000000000000002e-11              3e-10                     
                      -3.1733863898072441e-20                          84                                          8.2004617397902404                   1.3164203214015296e-12                -3.1600731604577061e-20            -1.3313229349538087e-22     0.49787068367863951  0                     0.49787068367863951   0                    -3.1600731604577061e-20  5                    5                    0                    0                      13                            0                           6                     0.98752286264303302  0.041781774947970772 -0.1518317458224944        0                                 0                                   0                                 0                                3e-10                     
                      -3.1678300837429635e-20                          95                                          7.7504099546138461                   9.2445428738806144e-13                 5.5563060642804783e-23            -9.3776603810355576e-23     0.30197383422318486  0                     0.30197383422318486   0                    -3.1584524233619282e-20  5                    5                    0                    0                      14                            1                           6                     0.9870163823006024   0.048522728411424278 -0.15311500872789158       0                                 0                                   0                                 5.0000000000000002e-11              3.5000000000000003e-10       
                      -1.9044491143981924e-20                          96                                          4.9003463860941769                   9.3244447292676325e-13                 1.2633809693447712e-20            -9.3776603810355576e-23     0.30197383422318486  0                     0.30197383422318486   0                    -1.8950714540171567e-20  3.0000000000000004   3.0000000000000004   0                    0                      15                            0                           7                     0.9870163823006024   0.048522728411424278 -0.15311500872789158       0                                 0                                   0                                 0                                3.5000000000000003e-10       
                      -1.9006424583795363e-20                          107                                         4.6637096826170188                   6.1162301450096131e-13                 3.8066560186559713e-23            -6.1644303451468743e-23     0.18315638888734179  0                     0.18315638888734179   0                    -1.8944780280343895e-20  3.0000000000000004   3.0000000000000004   0                    0                      16                            1                           7                     0.98670730626791103  0.052588514508311902 -0.15376325926349182       0                                 0                                   0                                 5.0000000000000002e-11              4.0000000000000001e-10       
                      -6.3765710635661004e-21                          108                                         2.037202075676158                    6.1552331786995837e-13                 1.2629853520229263e-20            -6.1644303451468743e-23     0.18315638888734179  0                     0.18315638888734179   0                    -6.3149267601146316e-21  1                    1                    0                    0                      17                            0                           8                     0.98670730626791103  0.052588514508311902 -0.15376325926349182       0                                 0                                   0                                 0                                4.0000000000000001e-10       
                      -6.3520622631334375e-21                          119                                         1.6642583997866072                   3.8303222952894715e-13                 2.4508800432662711e-23            -3.8364603017532867e-23     0.11108996538242308  0                     0.11108996538242308   0                    -6.3136976601159047e-21  1                    1                    0                    0                      18                            1                           8                     0.98651525939311002  0.053960492298775795 -0.15451831042118808       0                                 0                                   0                                 5.0000000000000002e-11              4.5e-10                   
                      -6.3520622631334375e-21                          120                                         1.6642583997866072                   3.8303222952894715e-13                 0                              -3.8364603017532867e-23     0.11108996538242308  0                     0.11108996538242308   0                    -6.3136976601159047e-21  1                    1                    0                    0                      19                            0                           9                     0.98651525939311002  0.053960492298775795 -0.15451831042118808       0                                 0                                   0                                 0                                4.5e-10                   
                      -6.3368200673778808e-21                          131                                         1.5674695098497939                   2.3803933730311626e-13                 1.5242195755556659e-23            -2.3858381993346741e-23     0.067379469990854673  0                     0.067379469990854673   0                    -6.3129616853845342e-21  1                    1                    0                    0                      20                            1                           9                     0.98640026334133335  0.055326528792322152 -0.15476916906134938       0                                 0                                   0                                 5.0000000000000002e-11              5.0000000000000003e-10       
                      -6.3368200673778808e-21                          132                                         1.5674695098497939                   2.3803933730311626e-13                 0                              -2.3858381993346741e-23     0.067379469990854673  0                     0.067379469990854673   0                    -6.3129616853845342e-21  1                    1                    0                    0                      21                            0                           10                    0.98640026334133335  0.055326528792322152 -0.15476916906134938       0                                 0                                   0                                 0                                5.0000000000000003e-10       
                      -6.3273537281317677e-21                          143                                         1.5693160105543356                   1.477210692961574e-13                 9.4663392461130827e-24            -1.4826683549819454e-23     0.040867714384640631  0                     0.040867714384640631   0                    -6.3125270445819487e-21  1                    1                    0                    0                      22                            1                           10                    0.98633235071592928  0.056687028857428989 -0.15470964640417867       0                                 0                                   0                                 5.0000000000000002e-11              5.5000000000000007e-10       
# Table End
