# ODT 1.0
# Table Start
# Title: mmArchive Data Table, Wed Jun 16 18:51:16 EDT 2010
# Columns: {Oxs_RungeKuttaEvolve:evolve:Total energy} {Oxs_RungeKuttaEvolve:evolve:Energy calc count} {Oxs_RungeKuttaEvolve:evolve:Max dm/dt} Oxs_RungeKuttaEvolve:evolve:dE/dt {Oxs_RungeKuttaEvolve:evolve:Delta E} Oxs_ScriptUZeeman::Energy Oxs_ScriptUZeeman::B Oxs_ScriptUZeeman::Bx Oxs_ScriptUZeeman::By Oxs_ScriptUZeeman::Bz Oxs_UZeeman::Energy  Oxs_UZeeman::B       Oxs_UZeeman::Bx      Oxs_UZeeman::By      Oxs_UZeeman::Bz      Oxs_TimeDriver::Iteration {Oxs_TimeDriver::Stage iteration} Oxs_TimeDriver::Stage Oxs_TimeDriver::mx   Oxs_TimeDriver::my   Oxs_TimeDriver::mz   {Oxs_TimeDriver::Max Spin Ang} {Oxs_TimeDriver::Stage Max Spin Ang} {Oxs_TimeDriver::Run Max Spin Ang} {Oxs_TimeDriver::Last time step} {Oxs_TimeDriver::Simulation time}
# Units:                       J                                            {}                                        deg/ns                                 J/s                                  J                               J                      mT                   mT                    mT                    mT                    J                 mT                   mT                   mT                   mT                        {}                            {}                          {}                   {}                   {}                   {}                        deg                               deg                                 deg                                s                                 s                
                      -1.279680119950022e-21                          1                                           100.7692059977275                    1.054649560725613e-11                 0                              -1.279680119950022e-21     10                   0                     10                    0                     0                    0                    0                    0                    0                      0                             0                           0                     0.99975009371095458  0.019995001874219091  0.0099975009371095457       0                                 0                                   0                                 0                                0                         
                      -1.1526483438302105e-21                          12                                          88.92776964746345                    9.7739729469572709e-12                 1.270317761198117e-22            -1.1526483438302105e-21     8.8249690258459541   0                     8.8249690258459541    0                     0                    0                    0                    0                    0                      1                             1                           0                     0.9997348600158712   0.020408151370956907 -0.010663818578091289       0                                 0                                   0                                 1.25e-11                         1.25e-11                  
                      -8.2986753662336727e-22                          23                                          61.117863095954355                   7.4708816051393679e-12                 3.2278080720684309e-22            -8.2986753662336727e-22     6.0653065971263347   0                     6.0653065971263347    0                     0                    0                    0                    0                    0                      2                             2                           0                     0.99801993259460087  0.021378441554600988 -0.059153836566741516       0                                 0                                   0                                 3.75e-11                         5.0000000000000002e-11       
                      -8.2986753662336727e-22                          24                                          61.117863095954355                   7.4708816051393679e-12                 0                              -8.2986753662336727e-22     6.0653065971263347   0                     6.0653065971263347    0                     0                    0                    0                    0                    0                      3                             0                           1                     0.99801993259460087  0.021378441554600988 -0.059153836566741516       0                                 0                                   0                                 0                                5.0000000000000002e-11       
                      -5.2309516809676718e-22                          35                                          37.069179507209881                   4.9264345193498873e-12                 3.0677236852660014e-22            -5.2309516809676718e-22     3.6787944117144238   0                     3.6787944117144238    0                     0                    0                    0                    0                    0                      4                             1                           1                     0.99464061085695277  0.022217501406127681 -0.10097741264944622       0                                 0                                   0                                 5.0000000000000002e-11              1e-10                     
                      -5.2309516809676718e-22                          36                                          37.069179507209881                   4.9264345193498873e-12                 0                              -5.2309516809676718e-22     3.6787944117144238   0                     3.6787944117144238    0                     0                    0                    0                    0                    0                      5                             0                           2                     0.99464061085695277  0.022217501406127681 -0.10097741264944622       0                                 0                                   0                                 0                                1e-10                     
                      -3.2454052309558616e-22                          47                                          22.483336651016351                   3.1333821912244358e-12                 1.9855464500118097e-22            -3.2454052309558616e-22     2.2313016014842981   0                     2.2313016014842981    0                     0                    0                    0                    0                    0                      6                             1                           2                     0.99173657335959331  0.022726401800613857 -0.12626194882928543       0                                 0                                   0                                 5.0000000000000002e-11              1.5e-10                   
                      -3.2060110870602576e-20                          48                                          22.275805251820007                   3.1354406936937344e-12                -3.1735570347506988e-20            -3.2454052309558616e-22     2.2313016014842981   0                     2.2313016014842981    0                    -3.1735570347506988e-20  5                    5                    0                    0                      7                             0                           3                     0.99173657335959331  0.022726401800613857 -0.12626194882928543       0                                 0                                   0                                 0                                1.5e-10                   
                      -3.2021971417486252e-20                          59                                          19.75851523378951                    2.9664599774833608e-12                 3.8139453116321986e-23            -3.0529755803769783e-22     1.9691167520419408   0                     1.9691167520419408    0                    -3.1716673859448559e-20  5                    5                    0                    0                      8                             1                           3                     0.99114605810776724  0.024225452042863048 -0.13054738209076977       0                                 0                                   0                                 1.25e-11                         1.6250000000000001e-10       
                      -3.192028207567003e-20                          70                                          14.095988658169286                   2.4593046673198147e-12                 1.0168934181622686e-22            -2.5033375288487238e-22     1.353352832366127    0                     1.353352832366127     0                    -3.1669948322785154e-20  5                    5                    0                    0                      9                             2                           3                     0.98968588508703592  0.028902033492533813 -0.14030866444908788       0                                 0                                   0                                 3.75e-11                         2.0000000000000001e-10       
                      -6.3590230398455184e-20                          71                                          17.768664623373276                   2.4333701818344759e-12                -3.1669948322785154e-20            -2.5033375288487238e-22     1.353352832366127    0                     1.353352832366127     0                    -6.3339896645570308e-20  10                   10                   0                    0                      10                            0                           4                     0.98968588508703592  0.028902033492533813 -0.14030866444908788       0                                 0                                   0                                 0                                2.0000000000000001e-10       
                      -6.3560077168757902e-20                          82                                          16.85461234507639                    2.3870390405901276e-12                 3.0153229697281513e-23            -2.4499930453749493e-22     1.1943296826671963   0                     1.1943296826671963    0                    -6.3315077864220407e-20  10                   10                   0                    0                      11                            1                           4                     0.98929809162844373  0.032052407211795586 -0.14234440309421606       0                                 0                                   0                                 1.25e-11                         2.1250000000000002e-10       
                      -6.34748434768294e-20                          93                                          15.312605761588438                   2.1370600424779465e-12                 8.5233691928499706e-23            -2.1890218235647871e-22     0.82084998623898808  0                     0.82084998623898808   0                    -6.3255941294472926e-20  10                   10                   0                    0                      12                            2                           4                     0.98837408272613925  0.04166835178972831 -0.14622045361162803       0                                 0                                   0                                 3.75e-11                         2.5000000000000002e-10       
                      -2.1890218235647871e-22                          94                                          8.2661087527940875                   2.1738796557217713e-12                 6.3255941294472926e-20            -2.1890218235647871e-22     0.82084998623898808  0                     0.82084998623898808   0                     0                    0                    0                    0                    0                      13                            0                           5                     0.98837408272613925  0.04166835178972831 -0.14622045361162803       0                                 0                                   0                                 0                                2.5000000000000002e-10       
                      -1.9333751608202679e-22                          105                                         7.2948050539664244                   1.9215824620028008e-12                 2.5564666274451902e-23            -1.9333751608202679e-22     0.72439757034251429  0                     0.72439757034251429   0                     0                    0                    0                    0                    0                      14                            1                           5                     0.988123220591268    0.041702220057879373 -0.14789667261498635       0                                 0                                   0                                 1.25e-11                         2.6250000000000002e-10       
                      -1.3313225315376182e-22                          116                                         5.0136246288858164                   1.3257520921049004e-12                 6.0205262928264974e-23            -1.3313225315376182e-22     0.49787068367863951  0                     0.49787068367863951   0                     0                    0                    0                    0                    0                      15                            2                           5                     0.98752286730323002  0.041781762287297665 -0.15183171899631179       0                                 0                                   0                                 3.75e-11                         3e-10                     
                      -3.1733864006857125e-20                          117                                         8.2004606957389701                   1.3164199217800259e-12                -3.1600731753703364e-20            -1.3313225315376182e-22     0.49787068367863951  0                     0.49787068367863951   0                    -3.1600731753703364e-20  5                    5                    0                    0                      16                            0                           6                     0.98752286730323002  0.041781762287297665 -0.15183171899631179       0                                 0                                   0                                 0                                3e-10                     
                      -3.171809383121285e-20                          128                                         8.0099552223224819                   1.208001154669655e-12                 1.5770175644276362e-23            -1.2222193999764914e-22     0.43936933623407426  0                     0.43936933623407426   0                    -3.1595871891215197e-20  5                    5                    0                    0                      17                            1                           6                     0.98737099660047489  0.043464977069903307 -0.1523460233826201        0                                 0                                   0                                 1.25e-11                         3.1250000000000001e-10       
                      -3.167830097857223e-20                          139                                         7.7504085238606448                   9.2445399972118828e-13                 3.9792852640620841e-23            -9.377657455218903e-23     0.30197383422318486  0                     0.30197383422318486   0                    -3.1584524404020038e-20  5                    5                    0                    0                      18                            2                           6                     0.98701638762562605  0.048522713272402263 -0.15311497919911057       0                                 0                                   0                                 3.75e-11                         3.5000000000000003e-10       
                      -1.9044491216964211e-20                          140                                         4.9003456826502312                   9.3244418187291729e-13                 1.2633809761608015e-20            -9.377657455218903e-23     0.30197383422318486  0                     0.30197383422318486   0                    -1.8950714642412023e-20  3.0000000000000004   3.0000000000000004   0                    0                      19                            0                           7                     0.98701638762562605  0.048522713272402263 -0.15311497919911057       0                                 0                                   0                                 0                                3.5000000000000003e-10       
                      -1.9033424163033135e-20                          151                                         4.7968200739785392                   8.398191876191143e-13                 1.1067053931078698e-23            -8.4491827769084496e-23     0.26649097336355487  0                     0.26649097336355487   0                    -1.8948932335264048e-20  3.0000000000000004   3.0000000000000004   0                    0                      20                            1                           7                     0.98692355912833574  0.049539569473180986 -0.15338748154223736       0                                 0                                   0                                 1.25e-11                         3.6249999999999999e-10       
                      -1.9006424674694742e-20                          162                                         4.6637087638629531                   6.1162282386963375e-13                 2.6999488338390044e-23            -6.1644284198426549e-23     0.18315638888734179  0                     0.18315638888734179   0                    -1.8944780390496317e-20  3.0000000000000004   3.0000000000000004   0                    0                      21                            2                           7                     0.98670731200501638  0.052588498083616805 -0.15376322806557058       0                                 0                                   0                                 3.75e-11                         4.0000000000000001e-10       
                      -6.3765710810305324e-21                          163                                         2.0372019401019856                   6.1552312546194924e-13                 1.2629853593664212e-20            -6.1644284198426549e-23     0.18315638888734179  0                     0.18315638888734179   0                    -6.3149267968321061e-21  1                    1                    0                    0                      22                            0                           8                     0.98670731200501638  0.052588498083616805 -0.15376322806557058       0                                 0                                   0                                 0                                4.0000000000000001e-10       
                      -6.3693152456444986e-21                          174                                         1.904141529729761                    5.4675965543259499e-13                 7.2558353860340506e-24            -5.4756315246417604e-23     0.16163494588165875  0                     0.16163494588165875   0                    -6.3145589303980808e-21  1                    1                    0                    0                      23                            1                           8                     0.98664983287469998  0.052932082295599606 -0.15401396674385898       0                                 0                                   0                                 1.25e-11                         4.1250000000000002e-10       
                      -6.3520622894887137e-21                          185                                         1.6642581503093414                   3.8303211012301774e-13                 1.7252956155784879e-23            -3.8364591058537822e-23     0.11108996538242308  0                     0.11108996538242308   0                    -6.3136976984301752e-21  1                    1                    0                    0                      24                            2                           8                     0.98651526537971479  0.053960475478237867 -0.15451827807399804       0                                 0                                   0                                 3.75e-11                         4.5e-10                   
                      -6.3520622894887137e-21                          186                                         1.6642581503093414                   3.8303211012301774e-13                 0                              -3.8364591058537822e-23     0.11108996538242308  0                     0.11108996538242308   0                    -6.3136976984301752e-21  1                    1                    0                    0                      25                            0                           9                     0.98651526537971479  0.053960475478237867 -0.15451827807399804       0                                 0                                   0                                 0                                4.5e-10                   
                      -6.3368200984646305e-21                          197                                         1.5674691981639934                   2.3803926377361822e-13                 1.5242191024083126e-23            -2.385837461874325e-23     0.067379469990854673  0                     0.067379469990854673   0                    -6.3129617238458871e-21  1                    1                    0                    0                      26                            1                           9                     0.98640026935091973  0.055326511690944012 -0.15476913687342475       0                                 0                                   0                                 5.0000000000000002e-11              5.0000000000000003e-10       
                      -6.3368200984646305e-21                          198                                         1.5674691981639934                   2.3803926377361822e-13                 0                              -2.385837461874325e-23     0.067379469990854673  0                     0.067379469990854673   0                    -6.3129617238458871e-21  1                    1                    0                    0                      27                            0                           10                    0.98640026935091973  0.055326511690944012 -0.15476913687342475       0                                 0                                   0                                 0                                5.0000000000000003e-10       
                      -6.3273537621305889e-21                          209                                         1.5693156705808833                   1.4772102407260968e-13                 9.4663363340411967e-24            -1.482667900381795e-23     0.040867714384640631  0                     0.040867714384640631   0                    -6.3125270831267711e-21  1                    1                    0                    0                      28                            1                           10                    0.9863323567385579   0.056687011476649424 -0.15470961437612232       0                                 0                                   0                                 5.0000000000000002e-11              5.5000000000000007e-10       
# Table End
