# ODT 1.0
# Table Start
# Title: mmArchive Data Table, Wed Jun 16 18:51:16 EDT 2010
# Columns: {Oxs_RungeKuttaEvolve:evolve:Total energy} {Oxs_RungeKuttaEvolve:evolve:Energy calc count} {Oxs_RungeKuttaEvolve:evolve:Max dm/dt} Oxs_RungeKuttaEvolve:evolve:dE/dt {Oxs_RungeKuttaEvolve:evolve:Delta E} Oxs_ScriptUZeeman::Energy Oxs_ScriptUZeeman::B Oxs_ScriptUZeeman::Bx Oxs_ScriptUZeeman::By Oxs_ScriptUZeeman::Bz Oxs_UZeeman::Energy  Oxs_UZeeman::B       Oxs_UZeeman::Bx      Oxs_UZeeman::By      Oxs_UZeeman::Bz      Oxs_TimeDriver::Iteration {Oxs_TimeDriver::Stage iteration} Oxs_TimeDriver::Stage Oxs_TimeDriver::mx   Oxs_TimeDriver::my   Oxs_TimeDriver::mz   {Oxs_TimeDriver::Max Spin Ang} {Oxs_TimeDriver::Stage Max Spin Ang} {Oxs_TimeDriver::Run Max Spin Ang} {Oxs_TimeDriver::Last time step} {Oxs_TimeDriver::Simulation time}
# Units:                       J                                            {}                                        deg/ns                                 J/s                                  J                               J                      mT                   mT                    mT                    mT                    J                 mT                   mT                   mT                   mT                        {}                            {}                          {}                   {}                   {}                   {}                        deg                               deg                                 deg                                s                                 s                
                      -1.279680119950022e-21                          1                                           100.7692059977275                    1.054649560725613e-11                 0                              -1.279680119950022e-21     10                   0                     10                    0                     0                    0                    0                    0                    0                      0                             0                           0                     0.99975009371095458  0.019995001874219091  0.0099975009371095457       0                                 0                                   0                                 0                                0                         
                      -1.1526483437755462e-21                          7                                           88.927769647465212                   9.7739729464105595e-12                 1.2703177617447594e-22            -1.1526483437755462e-21     8.8249690258459541   0                     8.8249690258459541    0                     0                    0                    0                    0                    0                      1                             1                           0                     0.99973486001600365  0.020408151369989053 -0.010663818567534792       0                                 0                                   0                                 1.25e-11                         1.25e-11                  
                      -8.2986753295629942e-22                          13                                          61.117863096077848                   7.4708815684653445e-12                 3.227808108192467e-22            -8.2986753295629942e-22     6.0653065971263347   0                     6.0653065971263347    0                     0                    0                    0                    0                    0                      2                             2                           0                     0.99801993306087522  0.021378441460132663 -0.059153828734088934       0                                 0                                   0                                 3.75e-11                         5.0000000000000002e-11       
                      -8.2986753295629942e-22                          14                                          61.117863096077848                   7.4708815684653445e-12                 0                              -8.2986753295629942e-22     6.0653065971263347   0                     6.0653065971263347    0                     0                    0                    0                    0                    0                      3                             0                           1                     0.99801993306087522  0.021378441460132663 -0.059153828734088934       0                                 0                                   0                                 0                                5.0000000000000002e-11       
                      -7.4093938129114546e-22                          20                                          53.936034117181201                   6.7647143342258259e-12                 8.8928151665153946e-23            -7.4093938129114546e-22     5.3526142851899028   0                     5.3526142851899028    0                     0                    0                    0                    0                    0                      4                             1                           1                     0.99719471234762525  0.021629015684367411 -0.071658156175430823       0                                 0                                   0                                 1.25e-11                         6.2500000000000004e-11       
                      -5.2309514411611188e-22                          26                                          37.069179508049146                   4.9264342795295458e-12                 2.1784423717503363e-22            -5.2309514411611188e-22     3.6787944117144238   0                     3.6787944117144238    0                     0                    0                    0                    0                    0                      5                             2                           1                     0.99464061598471443  0.022217500387593625 -0.10097736236441883       0                                 0                                   0                                 3.75e-11                         1e-10                     
                      -5.2309514411611188e-22                          27                                          37.069179508049146                   4.9264342795295458e-12                 0                              -5.2309514411611188e-22     3.6787944117144238   0                     3.6787944117144238    0                     0                    0                    0                    0                    0                      6                             0                           2                     0.99464061598471443  0.022217500387593625 -0.10097736236441883       0                                 0                                   0                                 0                                1e-10                     
                      -4.6478755854801258e-22                          33                                          32.713325206925632                   4.4107189893527903e-12                 5.8307585568099211e-23            -4.6478755854801258e-22     3.2465246735834978   0                     3.2465246735834978    0                     0                    0                    0                    0                    0                      7                             1                           2                     0.99384082327869583  0.022369476078235376 -0.10853582138957281       0                                 0                                   0                                 1.25e-11                         1.125e-10                 
                      -3.2454049962726091e-22                          39                                          22.483336651856508                   3.1333819565328112e-12                 1.4024705892075169e-22            -3.2454049962726091e-22     2.2313016014842981   0                     2.2313016014842981    0                     0                    0                    0                    0                    0                      8                             2                           2                     0.99173658376531115  0.02272640015721172 -0.12626186739235346       0                                 0                                   0                                 3.75e-11                         1.5e-10                   
                      -3.2060111180117224e-20                          40                                          22.275804147023692                   3.135440469918138e-12                -3.173557068048996e-20            -3.2454049962726091e-22     2.2313016014842981   0                     2.2313016014842981    0                    -3.173557068048996e-20  5                    5                    0                    0                      9                             0                           3                     0.99173658376531115  0.02272640015721172 -0.12626186739235346       0                                 0                                   0                                 0                                1.5e-10                   
                      -3.2021971730350399e-20                          46                                          19.758513976257738                   2.9664596676228819e-12                 3.8139449766819905e-23            -3.0529752595039193e-22     1.9691167520419408   0                     1.9691167520419408    0                    -3.1716674204400011e-20  5                    5                    0                    0                      10                            1                           3                     0.99114606888750023  0.024225449496725778 -0.13054730072098891       0                                 0                                   0                                 1.25e-11                         1.6250000000000001e-10       
                      -3.1920282410382023e-20                          52                                          14.095986778368264                   2.4593040785055767e-12                 1.0168931996837734e-22            -2.503336928290292e-22     1.353352832366127    0                     1.353352832366127     0                    -3.1669948717552993e-20  5                    5                    0                    0                      11                            2                           3                     0.98968589742353097  0.028902026558846401 -0.14030857886021025       0                                 0                                   0                                 3.75e-11                         2.0000000000000001e-10       
                      -6.3590231127935022e-20                          53                                          17.768658148692296                   2.4333696322665013e-12                -3.1669948717552993e-20            -2.503336928290292e-22     1.353352832366127    0                     1.353352832366127     0                    -6.3339897435105987e-20  10                   10                   0                    0                      12                            0                           4                     0.98968589742353097  0.028902026558846401 -0.14030857886021025       0                                 0                                   0                                 0                                2.0000000000000001e-10       
                      -6.356007790565428e-20                          59                                          16.854605453135413                   2.3870384180863002e-12                 3.0153222280746766e-23            -2.4499923713866754e-22     1.1943296826671963   0                     1.1943296826671963    0                    -6.3315078668515607e-20  10                   10                   0                    0                      13                            1                           4                     0.98929810419555619  0.032052398394241323 -0.1423443177378543        0                                 0                                   0                                 1.25e-11                         2.1250000000000002e-10       
                      -6.3474844259403167e-20                          65                                          15.312597716194256                   2.1370592554484704e-12                 8.5233646251113303e-23            -2.1890209819328603e-22     0.82084998623898808  0                     0.82084998623898808   0                    -6.325594216120988e-20  10                   10                   0                    0                      14                            2                           4                     0.98837409626890416  0.041668335769141016 -0.14622036663494281       0                                 0                                   0                                 3.75e-11                         2.5000000000000002e-10       
                      -2.1890209819328603e-22                          66                                          8.2661087583217352                   2.1738788140695927e-12                 6.325594216120988e-20            -2.1890209819328603e-22     0.82084998623898808  0                     0.82084998623898808   0                     0                    0                    0                    0                    0                      15                            0                           5                     0.98837409626890416  0.041668335769141016 -0.14622036663494281       0                                 0                                   0                                 0                                2.5000000000000002e-10       
                      -1.9333744180767668e-22                          72                                          7.2948050588485689                   1.921581719243515e-12                 2.5564656385609323e-23            -1.9333744180767668e-22     0.72439757034251429  0                     0.72439757034251429   0                     0                    0                    0                    0                    0                      16                            1                           5                     0.98812323428342674  0.041702204037164119 -0.14789658565262048       0                                 0                                   0                                 1.25e-11                         2.6250000000000002e-10       
                      -1.3313220200455299e-22                          78                                          5.0136246322543414                   1.325751580605327e-12                 6.0205239803123689e-23            -1.3313220200455299e-22     0.49787068367863951  0                     0.49787068367863951   0                     0                    0                    0                    0                    0                      17                            2                           5                     0.9875228816153514   0.041781746234808251 -0.15183163032676245       0                                 0                                   0                                 3.75e-11                         3e-10                     
                      -3.1733864413695803e-20                          79                                          8.2004567911399899                   1.3164194244795065e-12                -3.160073221169125e-20            -1.3313220200455299e-22     0.49787068367863951  0                     0.49787068367863951   0                    -3.160073221169125e-20  5                    5                    0                    0                      18                            0                           6                     0.9875228816153514   0.041781746234808251 -0.15183163032676245       0                                 0                                   0                                 0                                3e-10                     
                      -3.1718094244083841e-20                          85                                          8.009951167602523                    1.2080006903432981e-12                 1.5770169611963502e-23            -1.2222189212553003e-22     0.43936933623407426  0                     0.43936933623407426   0                    -3.1595872351958313e-20  5                    5                    0                    0                      19                            1                           6                     0.98737101099869706  0.043464960045459425 -0.15234593492331022       0                                 0                                   0                                 1.25e-11                         3.1250000000000001e-10       
                      -3.1678301412066795e-20                          91                                          7.7504041295529671                   9.2445362227317814e-13                 3.9792832017045016e-23            -9.3776535297896223e-23     0.30197383422318486  0                     0.30197383422318486   0                    -3.1584524876768902e-20  5                    5                    0                    0                      20                            2                           6                     0.98701640239902799  0.048522692961095272 -0.15311489040287163       0                                 0                                   0                                 3.75e-11                         3.5000000000000003e-10       
                      -1.9044491461359235e-20                          92                                          4.900343327034137                    9.3244379444618273e-13                 1.2633809950707559e-20            -9.3776535297896223e-23     0.30197383422318486  0                     0.30197383422318486   0                    -1.8950714926061339e-20  3.0000000000000004   3.0000000000000004   0                    0                      21                            0                           7                     0.98701640239902799  0.048522692961095272 -0.15311489040287163       0                                 0                                   0                                 0                                3.5000000000000003e-10       
                      -1.9033424412050018e-20                          98                                          4.7968176234385238                   8.3981883646309001e-13                 1.1067049309216481e-23            -8.4491792132490212e-23     0.26649097336355487  0                     0.26649097336355487   0                    -1.8948932619917529e-20  3.0000000000000004   3.0000000000000004   0                    0                      22                            1                           7                     0.98692357395403785  0.049539548578597631 -0.15338739289921316       0                                 0                                   0                                 1.25e-11                         3.6249999999999999e-10       
                      -1.9006424936985074e-20                          104                                         4.6637061127953263                   6.1162256220655337e-13                 2.699947506494358e-23            -6.1644257484134444e-23     0.18315638888734179  0                     0.18315638888734179   0                    -1.8944780679500941e-20  3.0000000000000004   3.0000000000000004   0                    0                      23                            2                           7                     0.98670732705734054  0.052588475293758548 -0.15376313926827892       0                                 0                                   0                                 3.75e-11                         4.0000000000000001e-10       
                      -6.3765711506511147e-21                          105                                         2.0372013996461287                   6.1552285880701724e-13                 1.2629853786333961e-20            -6.1644257484134444e-23     0.18315638888734179  0                     0.18315638888734179   0                    -6.3149268931669805e-21  1                    1                    0                    0                      24                            0                           8                     0.98670732705734054  0.052588475293758548 -0.15376313926827892       0                                 0                                   0                                 0                                4.0000000000000001e-10       
                      -6.3693153184128268e-21                          111                                         1.9041409260517161                   5.4675941817870744e-13                 7.2558322382879782e-24            -5.4756291470081647e-23     0.16163494588165875  0                     0.16163494588165875   0                    -6.3145590269427454e-21  1                    1                    0                    0                      25                            1                           8                     0.98664984795980382  0.052932059311383707 -0.15401387800439351       0                                 0                                   0                                 1.25e-11                         4.1250000000000002e-10       
                      -6.3520623701410069e-21                          117                                         1.6642573868599189                   3.8303194287486603e-13                 1.7252948271819946e-23            -3.8364574277408609e-23     0.11108996538242308  0                     0.11108996538242308   0                    -6.3136977958635985e-21  1                    1                    0                    0                      26                            2                           8                     0.98651528060368709  0.053960451875283005 -0.15451818911974013       0                                 0                                   0                                 3.75e-11                         4.5e-10                   
                      -6.3520623701410069e-21                          118                                         1.6642573868599189                   3.8303194287486603e-13                 0                              -3.8364574277408609e-23     0.11108996538242308  0                     0.11108996538242308   0                    -6.3136977958635985e-21  1                    1                    0                    0                      27                            0                           9                     0.98651528060368709  0.053960451875283005 -0.15451818911974013       0                                 0                                   0                                 0                                4.5e-10                   
                      -6.3475478945913044e-21                          124                                         1.623155533576041                    3.4012843341915235e-13                 4.5144755497025736e-24            -3.407122898923948e-23     0.098036550358218288  0                     0.098036550358218288   0                    -6.3134766656020647e-21  1                    1                    0                    0                      28                            1                           9                     0.98648072900032246  0.054302497488095222 -0.15461891888623366       0                                 0                                   0                                 1.25e-11                         4.6250000000000001e-10       
                      -6.3368201868200573e-21                          130                                         1.5674683122835578                   2.3803915883013878e-13                 1.072770777124676e-23            -2.3858364062850723e-23     0.067379469990854673  0                     0.067379469990854673   0                    -6.3129618227572066e-21  1                    1                    0                    0                      29                            2                           9                     0.98640028480581343  0.055326487212297805 -0.15476904712427997       0                                 0                                   0                                 3.75e-11                         5.0000000000000003e-10       
                      -6.3368201868200573e-21                          131                                         1.5674683122835578                   2.3803915883013878e-13                 0                              -2.3858364062850723e-23     0.067379469990854673  0                     0.067379469990854673   0                    -6.3129618227572066e-21  1                    1                    0                    0                      30                            0                           10                    0.98640028480581343  0.055326487212297805 -0.15476904712427997       0                                 0                                   0                                 0                                5.0000000000000003e-10       
                      -6.3340150867527794e-21                          137                                         1.5630390562254242                   2.1130422100797498e-13                 2.8051000672784355e-24            -2.1184563002721346e-23     0.059462173564720951  0                     0.059462173564720951   0                    -6.3128305237500577e-21  1                    1                    0                    0                      31                            1                           10                    0.9863797693359464   0.055667120300814124 -0.15477765459581005       0                                 0                                   0                                 1.25e-11                         5.1250000000000004e-10       
                      -6.3273538553040598e-21                          143                                         1.5693147388862319                   1.4772095848892598e-13                 6.6612314487191227e-24            -1.4826672380645908e-23     0.040867714384640631  0                     0.040867714384640631   0                    -6.3125271829234143e-21  1                    1                    0                    0                      32                            2                           10                    0.98633237233178328  0.056686986154199981 -0.1547095242417541        0                                 0                                   0                                 3.75e-11                         5.5000000000000007e-10       
# Table End
