# ODT 1.0
# Table Start
# Title: mmArchive Data Table, Wed Jun 16 18:51:19 EDT 2010
# Columns: {Oxs_RungeKuttaEvolve:evolve:Total energy} {Oxs_RungeKuttaEvolve:evolve:Energy calc count} {Oxs_RungeKuttaEvolve:evolve:Max dm/dt} Oxs_RungeKuttaEvolve:evolve:dE/dt {Oxs_RungeKuttaEvolve:evolve:Delta E} Oxs_ScriptUZeeman::Energy Oxs_ScriptUZeeman::B Oxs_ScriptUZeeman::Bx Oxs_ScriptUZeeman::By Oxs_ScriptUZeeman::Bz Oxs_UZeeman::Energy  Oxs_UZeeman::B       Oxs_UZeeman::Bx      Oxs_UZeeman::By      Oxs_UZeeman::Bz      Oxs_TimeDriver::Iteration {Oxs_TimeDriver::Stage iteration} Oxs_TimeDriver::Stage Oxs_TimeDriver::mx   Oxs_TimeDriver::my   Oxs_TimeDriver::mz   {Oxs_TimeDriver::Max Spin Ang} {Oxs_TimeDriver::Stage Max Spin Ang} {Oxs_TimeDriver::Run Max Spin Ang} {Oxs_TimeDriver::Last time step} {Oxs_TimeDriver::Simulation time}
# Units:                       J                                            {}                                        deg/ns                                 J/s                                  J                               J                      mT                   mT                    mT                    mT                    J                 mT                   mT                   mT                   mT                        {}                            {}                          {}                   {}                   {}                   {}                        deg                               deg                                 deg                                s                                 s                
                      -1.279680119950022e-21                          1                                           100.7692059977275                    1.054649560725613e-11                 0                              -1.279680119950022e-21     10                   0                     10                    0                     0                    0                    0                    0                    0                      0                             0                           0                     0.99975009371095458  0.019995001874219091  0.0099975009371095457       0                                 0                                   0                                 0                                0                         
                      -1.1526483437426455e-21                          7                                           88.927769647466263                   9.7739729460815128e-12                 1.2703177620737643e-22            -1.1526483437426455e-21     8.8249690258459541   0                     8.8249690258459541    0                     0                    0                    0                    0                    0                      1                             1                           0                     0.99973486001608824  0.020408151369406533 -0.010663818560714629       0                                 0                                   0                                 1.25e-11                         1.25e-11                  
                      -8.2986752329751916e-22                          13                                          61.117863096403106                   7.4708814718687306e-12                 3.2278082044512642e-22            -8.2986752329751916e-22     6.0653065971263347   0                     6.0653065971263347    0                     0                    0                    0                    0                    0                      2                             2                           0                     0.99801993316742943  0.021378441211310217 -0.059153827026273087       0                                 0                                   0                                 3.75e-11                         5.0000000000000002e-11       
                      -8.2986752329751916e-22                          14                                          61.117863096403106                   7.4708814718687306e-12                 0                              -8.2986752329751916e-22     6.0653065971263347   0                     6.0653065971263347    0                     0                    0                    0                    0                    0                      3                             0                           1                     0.99801993316742943  0.021378441211310217 -0.059153827026273087       0                                 0                                   0                                 0                                5.0000000000000002e-11       
                      -5.2309513551301752e-22                          20                                          37.069179508350231                   4.9264341934936558e-12                 3.0677238778450169e-22            -5.2309513551301752e-22     3.6787944117144238   0                     3.6787944117144238    0                     0                    0                    0                    0                    0                      4                             1                           1                     0.99464061610506649  0.022217500022193078 -0.10097736125933127       0                                 0                                   0                                 5.0000000000000002e-11              1e-10                     
                      -5.2309513551301752e-22                          21                                          37.069179508350231                   4.9264341934936558e-12                 0                              -5.2309513551301752e-22     3.6787944117144238   0                     3.6787944117144238    0                     0                    0                    0                    0                    0                      5                             0                           2                     0.99464061610506649  0.022217500022193078 -0.10097736125933127       0                                 0                                   0                                 0                                1e-10                     
                      -3.2454049399380029e-22                          27                                          22.483336652058181                   3.1333819001961949e-12                 1.9855464151921725e-22            -3.2454049399380029e-22     2.2313016014842981   0                     2.2313016014842981    0                     0                    0                    0                    0                    0                      6                             1                           2                     0.99173658374213591  0.022726399762720798 -0.12626186764539146       0                                 0                                   0                                 5.0000000000000002e-11              1.5e-10                   
                      -3.2060111173742155e-20                          28                                          22.27580416977916                    3.1354404133588668e-12                -3.1735570679748356e-20            -3.2454049399380029e-22     2.2313016014842981   0                     2.2313016014842981    0                    -3.1735570679748356e-20  5                    5                    0                    0                      7                             0                           3                     0.99173658374213591  0.022726399762720798 -0.12626186764539146       0                                 0                                   0                                 0                                1.5e-10                   
                      -3.1920282404915175e-20                          34                                          14.095986809071062                   2.4593040905605349e-12                 1.3982876882698272e-22            -2.503336940537068e-22     1.353352832366127    0                     1.353352832366127     0                    -3.1669948710861464e-20  5                    5                    0                    0                      8                             1                           3                     0.98968589721442068  0.028902026700240332 -0.14030858030607307       0                                 0                                   0                                 5.0000000000000002e-11              2.0000000000000001e-10       
                      -6.3590231115776639e-20                          35                                          17.768658256607086                   2.4333696436634095e-12                -3.1669948710861464e-20            -2.503336940537068e-22     1.353352832366127    0                     1.353352832366127     0                    -6.3339897421722928e-20  10                   10                   0                    0                      9                             0                           4                     0.98968589721442068  0.028902026700240332 -0.14030858030607307       0                                 0                                   0                                 0                                2.0000000000000001e-10       
                      -6.3474844240198853e-20                          41                                          15.312597913627704                   2.1370592996721002e-12                 1.1538687557778137e-22            -2.18902102749643e-22     0.82084998623898808  0                     0.82084998623898808   0                    -6.3255942137449212e-20  10                   10                   0                    0                      10                            1                           4                     0.9883740958976438   0.041668336636450261 -0.14622036889731405       0                                 0                                   0                                 5.0000000000000002e-11              2.5000000000000002e-10       
                      -2.18902102749643e-22                          42                                          8.2661087580224848                   2.1738788596342592e-12                 6.3255942137449212e-20            -2.18902102749643e-22     0.82084998623898808  0                     0.82084998623898808   0                     0                    0                    0                    0                    0                      11                            0                           5                     0.9883740958976438   0.041668336636450261 -0.14622036889731405       0                                 0                                   0                                 0                                2.5000000000000002e-10       
                      -1.3313220477584684e-22                          48                                          5.0136246320718323                   1.3257516083186711e-12                 8.5769897973796168e-23            -1.3313220477584684e-22     0.49787068367863951  0                     0.49787068367863951   0                     0                    0                    0                    0                    0                      12                            1                           5                     0.98752288116626441  0.041781747104541453 -0.15183163300831681       0                                 0                                   0                                 5.0000000000000002e-11              3e-10                     
                      -3.1733864402096312e-20                          49                                          8.2004569024651364                   1.3164194517878251e-12                -3.1600732197320466e-20            -1.3313220477584684e-22     0.49787068367863951  0                     0.49787068367863951   0                    -3.1600732197320466e-20  5                    5                    0                    0                      13                            0                           6                     0.98752288116626441  0.041781747104541453 -0.15183163300831681       0                                 0                                   0                                 0                                3e-10                     
                      -3.1678301397998978e-20                          55                                          7.7504042721576312                   9.2445364320243112e-13                 5.5563004097336541e-23            -9.3776537439807738e-23     0.30197383422318486  0                     0.30197383422318486   0                    -3.1584524860559168e-20  5                    5                    0                    0                      14                            1                           6                     0.98701640189247386  0.048522694069382269 -0.15311489331702413       0                                 0                                   0                                 5.0000000000000002e-11              3.5000000000000003e-10       
                      -1.9044491453775308e-20                          56                                          4.9003434001322939                   9.3244381570653494e-13                 1.2633809944223666e-20            -9.3776537439807738e-23     0.30197383422318486  0                     0.30197383422318486   0                    -1.8950714916335501e-20  3.0000000000000004   3.0000000000000004   0                    0                      15                            0                           7                     0.98701640189247386  0.048522694069382269 -0.15311489331702413       0                                 0                                   0                                 0                                3.5000000000000003e-10       
                      -1.9006424928066234e-20                          62                                          4.6637062029414649                   6.1162257644660323e-13                 3.8066525709074917e-23            -6.1644258926772923e-23     0.18315638888734179  0                     0.18315638888734179   0                    -1.8944780669139462e-20  3.0000000000000004   3.0000000000000004   0                    0                      16                            1                           7                     0.98670732651768012  0.052588476524467798 -0.15376314231039812       0                                 0                                   0                                 5.0000000000000002e-11              4.0000000000000001e-10       
                      -6.3765711486399262e-21                          63                                          2.0372014152587345                   6.1552287321930504e-13                 1.2629853779426306e-20            -6.1644258926772923e-23     0.18315638888734179  0                     0.18315638888734179   0                    -6.3149268897131531e-21  1                    1                    0                    0                      17                            0                           8                     0.98670732651768012  0.052588476524467798 -0.15376314231039812       0                                 0                                   0                                 0                                4.0000000000000001e-10       
                      -6.3520623674657134e-21                          69                                          1.6642574121840821                   3.8303195186968304e-13                 2.4508781174213123e-23            -3.8364575178758288e-23     0.11108996538242308  0                     0.11108996538242308   0                    -6.3136977922869548e-21  1                    1                    0                    0                      18                            1                           8                     0.98651528004483657  0.053960453143047253 -0.15451819224497373       0                                 0                                   0                                 5.0000000000000002e-11              4.5e-10                   
                      -6.3520623674657134e-21                          70                                          1.6642574121840821                   3.8303195186968304e-13                 0                              -3.8364575178758288e-23     0.11108996538242308  0                     0.11108996538242308   0                    -6.3136977922869548e-21  1                    1                    0                    0                      19                            0                           9                     0.98651528004483657  0.053960453143047253 -0.15451819224497373       0                                 0                                   0                                 0                                4.5e-10                   
                      -6.3368201837300622e-21                          76                                          1.5674683432648706                   2.3803916442096318e-13                 1.5242183735650976e-23            -2.385836462408552e-23     0.067379469990854673  0                     0.067379469990854673   0                    -6.3129618191059767e-21  1                    1                    0                    0                      20                            1                           9                     0.98640028423530868  0.05532648851377639 -0.15476905029506743       0                                 0                                   0                                 5.0000000000000002e-11              5.0000000000000003e-10       
                      -6.3368201837300622e-21                          77                                          1.5674683432648706                   2.3803916442096318e-13                 0                              -2.385836462408552e-23     0.067379469990854673  0                     0.067379469990854673   0                    -6.3129618191059767e-21  1                    1                    0                    0                      21                            0                           10                    0.98640028423530868  0.05532648851377639 -0.15476905029506743       0                                 0                                   0                                 0                                5.0000000000000003e-10       
                      -6.3273538519565995e-21                          83                                          1.569314772359405                    1.4772096195231722e-13                 9.4663317734625336e-24            -1.4826672729313246e-23     0.040867714384640631  0                     0.040867714384640631   0                    -6.3125271792272862e-21  1                    1                    0                    0                      22                            1                           10                    0.98633237175426336  0.0566869874872638  -0.15470952743521771       0                                 0                                   0                                 5.0000000000000002e-11              5.5000000000000007e-10       
# Table End
