# ODT 1.0
# Table Start
# Title: mmArchive Data Table, Wed Jun 16 18:51:17 EDT 2010
# Columns: {Oxs_RungeKuttaEvolve:evolve:Total energy} {Oxs_RungeKuttaEvolve:evolve:Energy calc count} {Oxs_RungeKuttaEvolve:evolve:Max dm/dt} Oxs_RungeKuttaEvolve:evolve:dE/dt {Oxs_RungeKuttaEvolve:evolve:Delta E} Oxs_ScriptUZeeman::Energy Oxs_ScriptUZeeman::B Oxs_ScriptUZeeman::Bx Oxs_ScriptUZeeman::By Oxs_ScriptUZeeman::Bz Oxs_UZeeman::Energy  Oxs_UZeeman::B       Oxs_UZeeman::Bx      Oxs_UZeeman::By      Oxs_UZeeman::Bz      Oxs_TimeDriver::Iteration {Oxs_TimeDriver::Stage iteration} Oxs_TimeDriver::Stage Oxs_TimeDriver::mx   Oxs_TimeDriver::my   Oxs_TimeDriver::mz   {Oxs_TimeDriver::Max Spin Ang} {Oxs_TimeDriver::Stage Max Spin Ang} {Oxs_TimeDriver::Run Max Spin Ang} {Oxs_TimeDriver::Last time step} {Oxs_TimeDriver::Simulation time}
# Units:                       J                                            {}                                        deg/ns                                 J/s                                  J                               J                      mT                   mT                    mT                    mT                    J                 mT                   mT                   mT                   mT                        {}                            {}                          {}                   {}                   {}                   {}                        deg                               deg                                 deg                                s                                 s                
                      -1.279680119950022e-21                          1                                           100.7692059977275                    1.054649560725613e-11                 0                              -1.279680119950022e-21     10                   0                     10                    0                     0                    0                    0                    0                    0                      0                             0                           0                     0.99975009371095458  0.019995001874219091  0.0099975009371095457       0                                 0                                   0                                 0                                0                         
                      -1.1526483437755462e-21                          7                                           88.927769647465212                   9.7739729464105595e-12                 1.2703177617447594e-22            -1.1526483437755462e-21     8.8249690258459541   0                     8.8249690258459541    0                     0                    0                    0                    0                    0                      1                             1                           0                     0.99973486001600365  0.020408151369989053 -0.010663818567534792       0                                 0                                   0                                 1.25e-11                         1.25e-11                  
                      -8.2986753295629942e-22                          13                                          61.117863096077848                   7.4708815684653445e-12                 3.227808108192467e-22            -8.2986753295629942e-22     6.0653065971263347   0                     6.0653065971263347    0                     0                    0                    0                    0                    0                      2                             2                           0                     0.99801993306087522  0.021378441460132663 -0.059153828734088934       0                                 0                                   0                                 3.75e-11                         5.0000000000000002e-11       
                      -8.2986753295629942e-22                          14                                          61.117863096077848                   7.4708815684653445e-12                 0                              -8.2986753295629942e-22     6.0653065971263347   0                     6.0653065971263347    0                     0                    0                    0                    0                    0                      3                             0                           1                     0.99801993306087522  0.021378441460132663 -0.059153828734088934       0                                 0                                   0                                 0                                5.0000000000000002e-11       
                      -5.2309515474445436e-22                          20                                          37.069179507677184                   4.9264343858190823e-12                 3.0677237821184506e-22            -5.2309515474445436e-22     3.6787944117144238   0                     3.6787944117144238    0                     0                    0                    0                    0                    0                      4                             1                           1                     0.99464061601092946  0.02221750083901285 -0.10097736200687343       0                                 0                                   0                                 5.0000000000000002e-11              1e-10                     
                      -5.2309515474445436e-22                          21                                          37.069179507677184                   4.9264343858190823e-12                 0                              -5.2309515474445436e-22     3.6787944117144238   0                     3.6787944117144238    0                     0                    0                    0                    0                    0                      5                             0                           2                     0.99464061601092946  0.02221750083901285 -0.10097736200687343       0                                 0                                   0                                 0                                1e-10                     
                      -3.2454050838422118e-22                          27                                          22.483336651543013                   3.1333820441055377e-12                 1.9855464636023316e-22            -3.2454050838422118e-22     2.2313016014842981   0                     2.2313016014842981    0                     0                    0                    0                    0                    0                      6                             1                           2                     0.99173658395004738  0.02272640077043005 -0.12626186583094848       0                                 0                                   0                                 5.0000000000000002e-11              1.5e-10                   
                      -3.2060111194785739e-20                          28                                          22.27580409466518                    3.1354405580046766e-12                -3.1735570686401517e-20            -3.2454050838422118e-22     2.2313016014842981   0                     2.2313016014842981    0                    -3.1735570686401517e-20  5                    5                    0                    0                      7                             0                           3                     0.99173658395004738  0.02272640077043005 -0.12626186583094848       0                                 0                                   0                                 0                                1.5e-10                   
                      -3.1920282427224774e-20                          34                                          14.095986683776426                   2.4593040981400955e-12                 1.3982876756096541e-22            -2.5033369473338412e-22     1.353352832366127    0                     1.353352832366127     0                    -3.1669948732491391e-20  5                    5                    0                    0                      8                             1                           3                     0.98968589789035588  0.028902026778711797 -0.14030857552210674       0                                 0                                   0                                 5.0000000000000002e-11              2.0000000000000001e-10       
                      -6.3590231159716165e-20                          35                                          17.76865786661071                    2.433369653531545e-12                -3.1669948732491391e-20            -2.5033369473338412e-22     1.353352832366127    0                     1.353352832366127     0                    -6.3339897464982781e-20  10                   10                   0                    0                      9                             0                           4                     0.98968589789035588  0.028902026778711797 -0.14030857552210674       0                                 0                                   0                                 0                                2.0000000000000001e-10       
                      -6.3474844312878622e-20                          41                                          15.31259716642977                    2.1370592382533436e-12                 1.1538684683754928e-22            -2.1890209610065946e-22     0.82084998623898808  0                     0.82084998623898808   0                    -6.3255942216777954e-20  10                   10                   0                    0                      10                            1                           4                     0.98837409713715552  0.041668335370806484 -0.14622036087952572       0                                 0                                   0                                 5.0000000000000002e-11              2.5000000000000002e-10       
                      -2.1890209610065946e-22                          42                                          8.2661087584591755                   2.1738787931428239e-12                 6.3255942216777954e-20            -2.1890209610065946e-22     0.82084998623898808  0                     0.82084998623898808   0                     0                    0                    0                    0                    0                      11                            0                           5                     0.98837409713715552  0.041668335370806484 -0.14622036087952572       0                                 0                                   0                                 0                                2.5000000000000002e-10       
                      -1.3313220076815162e-22                          48                                          5.0136246323357661                   1.3257515682411322e-12                 8.5769895332507863e-23            -1.3313220076815162e-22     0.49787068367863951  0                     0.49787068367863951   0                     0                    0                    0                    0                    0                      12                            1                           5                     0.98752288257656151  0.041781745846780349 -0.1518316241817681        0                                 0                                   0                                 5.0000000000000002e-11              3e-10                     
                      -3.1733864443218124e-20                          49                                          8.2004565078019844                   1.3164194131453063e-12                -3.1600732242449976e-20            -1.3313220076815162e-22     0.49787068367863951  0                     0.49787068367863951   0                    -3.1600732242449976e-20  5                    5                    0                    0                      13                            0                           6                     0.98752288257656151  0.041781745846780349 -0.1518316241817681        0                                 0                                   0                                 0                                3e-10                     
                      -3.167830144417638e-20                          55                                          7.7504038040599754                   9.2445360873149966e-13                 5.5562999041744823e-23            -9.377653383191807e-23     0.30197383422318486  0                     0.30197383422318486   0                    -3.1584524910344463e-20  5                    5                    0                    0                      14                            1                           6                     0.98701640344826436  0.048522692202555756 -0.15311488387961875       0                                 0                                   0                                 5.0000000000000002e-11              3.5000000000000003e-10       
                      -1.9044491480038595e-20                          56                                          4.9003431469919541                   9.3244378017743692e-13                 1.2633809964137785e-20            -9.377653383191807e-23     0.30197383422318486  0                     0.30197383422318486   0                    -1.8950714946206678e-20  3.0000000000000004   3.0000000000000004   0                    0                      15                            0                           7                     0.98701640344826436  0.048522692202555756 -0.15311488387961875       0                                 0                                   0                                 0                                3.5000000000000003e-10       
                      -1.9006424956823988e-20                          62                                          4.6637059122758684                   6.116225512543023e-13                 3.8066523214607878e-23            -6.1644256347461347e-23     0.18315638888734179  0                     0.18315638888734179   0                    -1.8944780700476527e-20  3.0000000000000004   3.0000000000000004   0                    0                      16                            1                           7                     0.98670732814981899  0.052588474324067165 -0.15376313258942279       0                                 0                                   0                                 5.0000000000000002e-11              4.0000000000000001e-10       
                      -6.3765711565063036e-21                          63                                          2.0372013541930256                   6.1552284748132674e-13                 1.2629853800317684e-20            -6.1644256347461347e-23     0.18315638888734179  0                     0.18315638888734179   0                    -6.3149269001588419e-21  1                    1                    0                    0                      17                            0                           8                     0.98670732814981899  0.052588474324067165 -0.15376313258942279       0                                 0                                   0                                 0                                4.0000000000000001e-10       
                      -6.3520623765423278e-21                          69                                          1.6642573262654148                   3.8303193554719232e-13                 2.4508779963976099e-23            -3.8364573540171631e-23     0.11108996538242308  0                     0.11108996538242308   0                    -6.3136978030021557e-21  1                    1                    0                    0                      18                            1                           8                     0.98651528171908676  0.053960450838346156 -0.15451818236063161       0                                 0                                   0                                 5.0000000000000002e-11              4.5e-10                   
                      -6.3520623765423278e-21                          70                                          1.6642573262654148                   3.8303193554719232e-13                 0                              -3.8364573540171631e-23     0.11108996538242308  0                     0.11108996538242308   0                    -6.3136978030021557e-21  1                    1                    0                    0                      19                            0                           9                     0.98651528171908676  0.053960450838346156 -0.15451818236063161       0                                 0                                   0                                 0                                4.5e-10                   
                      -6.3368201935721187e-21                          76                                          1.5674682445851604                   2.3803915412620507e-13                 1.5242182970208637e-23            -2.3858363587754157e-23     0.067379469990854673  0                     0.067379469990854673   0                    -6.3129618299843648e-21  1                    1                    0                    0                      20                            1                           9                     0.9864002859350568   0.055326486110569957 -0.15476904032103775       0                                 0                                   0                                 5.0000000000000002e-11              5.0000000000000003e-10       
                      -6.3368201935721187e-21                          77                                          1.5674682445851604                   2.3803915412620507e-13                 0                              -2.3858363587754157e-23     0.067379469990854673  0                     0.067379469990854673   0                    -6.3129618299843648e-21  1                    1                    0                    0                      21                            0                           10                    0.9864002859350568   0.055326486110569957 -0.15476904032103775       0                                 0                                   0                                 0                                5.0000000000000003e-10       
                      -6.3273538622794749e-21                          83                                          1.5693146691350583                   1.4772095549084724e-13                 9.4663312926438595e-24            -1.4826672075986519e-23     0.040867714384640631  0                     0.040867714384640631   0                    -6.3125271902034882e-21  1                    1                    0                    0                      22                            1                           10                    0.98633237346929492  0.056686984989392251 -0.15470951741647868       0                                 0                                   0                                 5.0000000000000002e-11              5.5000000000000007e-10       
# Table End
