# ODT 1.0
# Table Start
# Title: mmArchive Data Table, Wed Jun 16 18:51:18 EDT 2010
# Columns: {Oxs_RungeKuttaEvolve:evolve:Total energy} {Oxs_RungeKuttaEvolve:evolve:Energy calc count} {Oxs_RungeKuttaEvolve:evolve:Max dm/dt} Oxs_RungeKuttaEvolve:evolve:dE/dt {Oxs_RungeKuttaEvolve:evolve:Delta E} Oxs_ScriptUZeeman::Energy Oxs_ScriptUZeeman::B Oxs_ScriptUZeeman::Bx Oxs_ScriptUZeeman::By Oxs_ScriptUZeeman::Bz Oxs_UZeeman::Energy  Oxs_UZeeman::B       Oxs_UZeeman::Bx      Oxs_UZeeman::By      Oxs_UZeeman::Bz      Oxs_TimeDriver::Iteration {Oxs_TimeDriver::Stage iteration} Oxs_TimeDriver::Stage Oxs_TimeDriver::mx   Oxs_TimeDriver::my   Oxs_TimeDriver::mz   {Oxs_TimeDriver::Max Spin Ang} {Oxs_TimeDriver::Stage Max Spin Ang} {Oxs_TimeDriver::Run Max Spin Ang} {Oxs_TimeDriver::Last time step} {Oxs_TimeDriver::Simulation time}
# Units:                       J                                            {}                                        deg/ns                                 J/s                                  J                               J                      mT                   mT                    mT                    mT                    J                 mT                   mT                   mT                   mT                        {}                            {}                          {}                   {}                   {}                   {}                        deg                               deg                                 deg                                s                                 s                
                      -1.279680119950022e-21                          1                                           100.7692059977275                    1.054649560725613e-11                 0                              -1.279680119950022e-21     10                   0                     10                    0                     0                    0                    0                    0                    0                      0                             0                           0                     0.99975009371095458  0.019995001874219091  0.0099975009371095457       0                                 0                                   0                                 0                                0                         
                      -1.1526483437426455e-21                          7                                           88.927769647466263                   9.7739729460815128e-12                 1.2703177620737643e-22            -1.1526483437426455e-21     8.8249690258459541   0                     8.8249690258459541    0                     0                    0                    0                    0                    0                      1                             1                           0                     0.99973486001608824  0.020408151369406533 -0.010663818560714629       0                                 0                                   0                                 1.25e-11                         1.25e-11                  
                      -8.2986752329751916e-22                          13                                          61.117863096403106                   7.4708814718687306e-12                 3.2278082044512642e-22            -8.2986752329751916e-22     6.0653065971263347   0                     6.0653065971263347    0                     0                    0                    0                    0                    0                      2                             2                           0                     0.99801993316742943  0.021378441211310217 -0.059153827026273087       0                                 0                                   0                                 3.75e-11                         5.0000000000000002e-11       
                      -8.2986752329751916e-22                          14                                          61.117863096403106                   7.4708814718687306e-12                 0                              -8.2986752329751916e-22     6.0653065971263347   0                     6.0653065971263347    0                     0                    0                    0                    0                    0                      3                             0                           1                     0.99801993316742943  0.021378441211310217 -0.059153827026273087       0                                 0                                   0                                 0                                5.0000000000000002e-11       
                      -7.4093937275971488e-22                          20                                          53.936034117471863                   6.7647142489045723e-12                 8.8928150537804294e-23            -7.4093937275971488e-22     5.3526142851899028   0                     5.3526142851899028    0                     0                    0                    0                    0                    0                      4                             1                           1                     0.99719471247567937  0.021629015435323494 -0.071658154468599231       0                                 0                                   0                                 1.25e-11                         6.2500000000000004e-11       
                      -5.2309513609261354e-22                          26                                          37.069179508329945                   4.9264341992899487e-12                 2.1784423666710139e-22            -5.2309513609261354e-22     3.6787944117144238   0                     3.6787944117144238    0                     0                    0                    0                    0                    0                      5                             2                           1                     0.99464061613977228  0.022217500046810348 -0.10097736091205854       0                                 0                                   0                                 3.75e-11                         1e-10                     
                      -5.2309513609261354e-22                          27                                          37.069179508329945                   4.9264341992899487e-12                 0                              -5.2309513609261354e-22     3.6787944117144238   0                     3.6787944117144238    0                     0                    0                    0                    0                    0                      6                             0                           2                     0.99464061613977228  0.022217500046810348 -0.10097736091205854       0                                 0                                   0                                 0                                1e-10                     
                      -4.6478755146571808e-22                          33                                          32.713325207175195                   4.4107189185262266e-12                 5.8307584626895461e-23            -4.6478755146571808e-22     3.2465246735834978   0                     3.2465246735834978    0                     0                    0                    0                    0                    0                      7                             1                           2                     0.99384082344478097  0.022369475737375955 -0.10853581993901627       0                                 0                                   0                                 1.25e-11                         1.125e-10                 
                      -3.2454049432567244e-22                          39                                          22.483336652046301                   3.133381903515035e-12                 1.4024705714004561e-22            -3.2454049432567244e-22     2.2313016014842981   0                     2.2313016014842981    0                     0                    0                    0                    0                    0                      8                             2                           2                     0.99173658390108843  0.022726399785960607 -0.12626186639270032       0                                 0                                   0                                 3.75e-11                         1.5e-10                   
                      -3.2060111179160507e-20                          40                                          22.275804150438642                   3.1354404168685376e-12                -3.1735570684834834e-20            -3.2454049432567244e-22     2.2313016014842981   0                     2.2313016014842981    0                    -3.1735570684834834e-20  5                    5                    0                    0                      9                             0                           3                     0.99173658390108843  0.022726399785960607 -0.12626186639270032       0                                 0                                   0                                 0                                1.5e-10                   
                      -3.2021971730025068e-20                          46                                          19.758513977565404                   2.9664596194818665e-12                 3.8139449135440296e-23            -3.0529752113743554e-22     1.9691167520419408   0                     1.9691167520419408    0                    -3.1716674208887633e-20  5                    5                    0                    0                      10                            1                           3                     0.99114606902773827  0.02422544911481626 -0.13054729972713819       0                                 0                                   0                                 1.25e-11                         1.6250000000000001e-10       
                      -3.1920282410487811e-20                          52                                          14.09598677777416                    2.4593040548018987e-12                 1.0168931953725644e-22            -2.5033369045829022e-22     1.353352832366127    0                     1.353352832366127     0                    -3.1669948720029516e-20  5                    5                    0                    0                      11                            2                           3                     0.98968589750092228  0.0289020262851351  -0.14030857837070121       0                                 0                                   0                                 3.75e-11                         2.0000000000000001e-10       
                      -6.3590231130517333e-20                          53                                          17.768658125772376                   2.4333696087396147e-12                -3.1669948720029516e-20            -2.5033369045829022e-22     1.353352832366127    0                     1.353352832366127     0                    -6.3339897440059033e-20  10                   10                   0                    0                      12                            0                           4                     0.98968589750092228  0.0289020262851351  -0.14030857837070121       0                                 0                                   0                                 0                                2.0000000000000001e-10       
                      -6.3560077908510916e-20                          59                                          16.854605426418246                   2.3870383965759757e-12                 3.0153222006416548e-23            -2.4499923496767669e-22     1.1943296826671963   0                     1.1943296826671963    0                    -6.3315078673543235e-20  10                   10                   0                    0                      13                            1                           4                     0.98929810427411291  0.032052398110218143 -0.1423443172558374        0                                 0                                   0                                 1.25e-11                         2.1250000000000002e-10       
                      -6.3474844258254061e-20                          65                                          15.312597728007823                   2.1370592468929753e-12                 8.5233650256853772e-23            -2.1890209734575413e-22     0.82084998623898808  0                     0.82084998623898808   0                    -6.3255942160908303e-20  10                   10                   0                    0                      14                            2                           4                     0.98837409626419215  0.041668335607812079 -0.14622036671276761       0                                 0                                   0                                 3.75e-11                         2.5000000000000002e-10       
                      -2.1890209734575413e-22                          66                                          8.2661087583774009                   2.1738788055940699e-12                 6.3255942160908303e-20            -2.1890209734575413e-22     0.82084998623898808  0                     0.82084998623898808   0                     0                    0                    0                    0                    0                      15                            0                           5                     0.98837409626419215  0.041668335607812079 -0.14622036671276761       0                                 0                                   0                                 0                                2.5000000000000002e-10       
                      -1.9333744105971381e-22                          72                                          7.2948050588977331                   1.921581711763727e-12                 2.5564656286040334e-23            -1.9333744105971381e-22     0.72439757034251429  0                     0.72439757034251429   0                     0                    0                    0                    0                    0                      16                            1                           5                     0.98812323427855275  0.041702203875831165 -0.14789658573067541       0                                 0                                   0                                 1.25e-11                         2.6250000000000002e-10       
                      -1.331322014867852e-22                          78                                          5.0136246322884395                   1.3257515754275734e-12                 6.0205239572928593e-23            -1.331322014867852e-22     0.49787068367863951  0                     0.49787068367863951   0                     0                    0                    0                    0                    0                      17                            2                           5                     0.98752288158925017  0.041781746072313809 -0.15183163054124282       0                                 0                                   0                                 3.75e-11                         3e-10                     
                      -3.1733864412342795e-20                          79                                          8.2004568041253751                   1.3164194192546321e-12                -3.160073221085601e-20            -1.331322014867852e-22     0.49787068367863951  0                     0.49787068367863951   0                    -3.160073221085601e-20  5                    5                    0                    0                      18                            0                           6                     0.98752288158925017  0.041781746072313809 -0.15183163054124282       0                                 0                                   0                                 0                                3e-10                     
                      -3.171809424279091e-20                          85                                          8.0099511803001207                   1.2080006857982557e-12                 1.5770169551884744e-23            -1.222218916755336e-22     0.43936933623407426  0                     0.43936933623407426   0                    -3.1595872351115375e-20  5                    5                    0                    0                      19                            1                           6                     0.98737101097235536  0.043464959885430192 -0.15234593513969052       0                                 0                                   0                                 1.25e-11                         3.1250000000000001e-10       
                      -3.1678301410359139e-20                          91                                          7.7504041468633718                   9.2445361997817503e-13                 3.9792832431770849e-23            -9.3776535074342212e-23     0.30197383422318486  0                     0.30197383422318486   0                    -3.1584524875284798e-20  5                    5                    0                    0                      20                            2                           6                     0.98701640235264976  0.048522692845421961 -0.15311489073849413       0                                 0                                   0                                 3.75e-11                         3.5000000000000003e-10       
                      -1.904449146024522e-20                          92                                          4.9003433377716394                   9.3244379218732171e-13                 1.2633809950113919e-20            -9.3776535074342212e-23     0.30197383422318486  0                     0.30197383422318486   0                    -1.8950714925170879e-20  3.0000000000000004   3.0000000000000004   0                    0                      21                            0                           7                     0.98701640235264976  0.048522692845421961 -0.15311489073849413       0                                 0                                   0                                 0                                3.5000000000000003e-10       
                      -1.903342441096203e-20                          98                                          4.7968176341452704                   8.3981883450593484e-13                 1.1067049283190302e-23            -8.4491791939050967e-23     0.26649097336355487  0                     0.26649097336355487   0                    -1.894893261902298e-20  3.0000000000000004   3.0000000000000004   0                    0                      22                            1                           7                     0.98692357390744667  0.049539548465179599 -0.15338739323561992       0                                 0                                   0                                 1.25e-11                         3.6249999999999999e-10       
                      -1.9006424935787209e-20                          104                                         4.6637061249026202                   6.1162256109826787e-13                 2.6999475174821374e-23            -6.1644257375808514e-23     0.18315638888734179  0                     0.18315638888734179   0                    -1.89447806784114e-20  3.0000000000000004   3.0000000000000004   0                    0                      23                            2                           7                     0.9867073270005936   0.052588475201346116 -0.15376313966403321       0                                 0                                   0                                 3.75e-11                         4.0000000000000001e-10       
                      -6.3765711501796086e-21                          105                                         2.0372014033063723                   6.15522857720453e-13                 1.2629853785607601e-20            -6.1644257375808514e-23     0.18315638888734179  0                     0.18315638888734179   0                    -6.3149268928038005e-21  1                    1                    0                    0                      24                            0                           8                     0.9867073270005936   0.052588475201346116 -0.15376313966403321       0                                 0                                   0                                 0                                4.0000000000000001e-10       
                      -6.36931531795398e-21                          111                                         1.9041409298582592                   5.4675941722862275e-13                 7.2558322256286123e-24            -5.4756291375394425e-23     0.16163494588165875  0                     0.16163494588165875   0                    -6.3145590265785859e-21  1                    1                    0                    0                      25                            1                           8                     0.98664984790290389  0.05293205921985103 -0.1540138784003664        0                                 0                                   0                                 1.25e-11                         4.1250000000000002e-10       
                      -6.3520623696813807e-21                          117                                         1.6642573912107137                   3.8303194226227633e-13                 1.725294827259954e-23            -3.8364574216470565e-23     0.11108996538242308  0                     0.11108996538242308   0                    -6.31369779546491e-21  1                    1                    0                    0                      26                            2                           8                     0.98651528054139204  0.053960451789572567 -0.15451818954739202       0                                 0                                   0                                 3.75e-11                         4.5e-10                   
                      -6.3520623696813807e-21                          118                                         1.6642573912107137                   3.8303194226227633e-13                 0                              -3.8364574216470565e-23     0.11108996538242308  0                     0.11108996538242308   0                    -6.31369779546491e-21  1                    1                    0                    0                      27                            0                           9                     0.98651528054139204  0.053960451789572567 -0.15451818954739202       0                                 0                                   0                                 0                                4.5e-10                   
                      -6.3475478941388072e-21                          124                                         1.6231555379646927                   3.4012843288416441e-13                 4.5144755425733928e-24            -3.4071228936056407e-23     0.098036550358218288  0                     0.098036550358218288   0                    -6.313476665202751e-21  1                    1                    0                    0                      28                            1                           9                     0.98648072893792971  0.054302497403332393 -0.15461891931407365       0                                 0                                   0                                 1.25e-11                         4.6250000000000001e-10       
                      -6.3368201863652001e-21                          130                                         1.5674683168441124                   2.3803915848229605e-13                 1.0727707773607369e-23            -2.3858364028383289e-23     0.067379469990854673  0                     0.067379469990854673   0                    -6.3129618223368167e-21  1                    1                    0                    0                      29                            2                           9                     0.98640028474012742  0.055326487132369359 -0.15476904757149371       0                                 0                                   0                                 3.75e-11                         5.0000000000000003e-10       
                      -6.3368201863652001e-21                          131                                         1.5674683168441124                   2.3803915848229605e-13                 0                              -2.3858364028383289e-23     0.067379469990854673  0                     0.067379469990854673   0                    -6.3129618223368167e-21  1                    1                    0                    0                      30                            0                           10                    0.98640028474012742  0.055326487132369359 -0.15476904757149371       0                                 0                                   0                                 0                                5.0000000000000003e-10       
                      -6.3340150863019673e-21                          137                                         1.5630390607562266                   2.1130422070442617e-13                 2.8051000632327344e-24            -2.1184562972680345e-23     0.059462173564720951  0                     0.059462173564720951   0                    -6.3128305233292864e-21  1                    1                    0                    0                      31                            1                           10                    0.98637976927020088  0.055667120221874748 -0.15477765504319044       0                                 0                                   0                                 1.25e-11                         5.1250000000000004e-10       
                      -6.3273538548509479e-21                          143                                         1.569314743417159                    1.4772095829028707e-13                 6.6612314510191038e-24            -1.4826672361097163e-23     0.040867714384640631  0                     0.040867714384640631   0                    -6.3125271824898506e-21  1                    1                    0                    0                      32                            2                           10                    0.98633237226403903  0.056686986079459045 -0.15470952470103552       0                                 0                                   0                                 3.75e-11                         5.5000000000000007e-10       
# Table End
