# ODT 1.0
# Table Start
# Title: mmArchive Data Table, Wed Jun 16 18:51:20 EDT 2010
# Columns: {Oxs_RungeKuttaEvolve:evolve:Total energy} {Oxs_RungeKuttaEvolve:evolve:Energy calc count} {Oxs_RungeKuttaEvolve:evolve:Max dm/dt} Oxs_RungeKuttaEvolve:evolve:dE/dt {Oxs_RungeKuttaEvolve:evolve:Delta E} Oxs_ScriptUZeeman::Energy Oxs_ScriptUZeeman::B Oxs_ScriptUZeeman::Bx Oxs_ScriptUZeeman::By Oxs_ScriptUZeeman::Bz Oxs_UZeeman::Energy  Oxs_UZeeman::B       Oxs_UZeeman::Bx      Oxs_UZeeman::By      Oxs_UZeeman::Bz      Oxs_TimeDriver::Iteration {Oxs_TimeDriver::Stage iteration} Oxs_TimeDriver::Stage Oxs_TimeDriver::mx   Oxs_TimeDriver::my   Oxs_TimeDriver::mz   {Oxs_TimeDriver::Max Spin Ang} {Oxs_TimeDriver::Stage Max Spin Ang} {Oxs_TimeDriver::Run Max Spin Ang} {Oxs_TimeDriver::Last time step} {Oxs_TimeDriver::Simulation time}
# Units:                       J                                            {}                                        deg/ns                                 J/s                                  J                               J                      mT                   mT                    mT                    mT                    J                 mT                   mT                   mT                   mT                        {}                            {}                          {}                   {}                   {}                   {}                        deg                               deg                                 deg                                s                                 s                
                      -1.279680119950022e-21                          1                                           100.7692059977275                    1.054649560725613e-11                 0                              -1.279680119950022e-21     10                   0                     10                    0                     0                    0                    0                    0                    0                      0                             0                           0                     0.99975009371095458  0.019995001874219091  0.0099975009371095457       0                                 0                                   0                                 0                                0                         
                      -1.1526483437606464e-21                          7                                           88.927769647465695                   9.7739729462615426e-12                 1.2703177618937571e-22            -1.1526483437606464e-21     8.8249690258459541   0                     8.8249690258459541    0                     0                    0                    0                    0                    0                      1                             1                           0                     0.99973486001606116  0.020408151369725246 -0.010663818562644383       0                                 0                                   0                                 1.25e-11                         1.25e-11                  
                      -8.298675286182687e-22                          13                                          61.117863096223928                   7.4708815250810801e-12                 3.227808151423776e-22            -8.298675286182687e-22     6.0653065971263347   0                     6.0653065971263347    0                     0                    0                    0                    0                    0                      2                             2                           0                     0.99801993313063131  0.021378441348379483 -0.059153827597579617       0                                 0                                   0                                 3.75e-11                         5.0000000000000002e-11       
                      -8.298675286182687e-22                          14                                          61.117863096223928                   7.4708815250810801e-12                 0                              -8.298675286182687e-22     6.0653065971263347   0                     6.0653065971263347    0                     0                    0                    0                    0                    0                      3                             0                           1                     0.99801993313063131  0.021378441348379483 -0.059153827597579617       0                                 0                                   0                                 0                                5.0000000000000002e-11       
                      -7.4093937746023843e-22                          20                                          53.936034117311721                   6.7647142959136359e-12                 8.8928151158030273e-23            -7.4093937746023843e-22     5.3526142851899028   0                     5.3526142851899028    0                     0                    0                    0                    0                    0                      4                             1                           1                     0.99719471243164226  0.021629015572538091 -0.071658155040004334       0                                 0                                   0                                 1.25e-11                         6.2500000000000004e-11       
                      -5.2309514074122293e-22                          26                                          37.069179508167259                   4.9264342457787157e-12                 2.1784423671901555e-22            -5.2309514074122293e-22     3.6787944117144238   0                     3.6787944117144238    0                     0                    0                    0                    0                    0                      5                             2                           1                     0.99464061605967069  0.02221750024425145 -0.10097736165762876       0                                 0                                   0                                 3.75e-11                         1e-10                     
                      -5.2309514074122293e-22                          27                                          37.069179508167259                   4.9264342457787157e-12                 0                              -5.2309514074122293e-22     3.6787944117144238   0                     3.6787944117144238    0                     0                    0                    0                    0                    0                      6                             0                           2                     0.99464061605967069  0.02221750024425145 -0.10097736165762876       0                                 0                                   0                                 0                                1e-10                     
                      -4.6478755556930444e-22                          33                                          32.713325207030593                   4.4107189595641868e-12                 5.8307585171918471e-23            -4.6478755556930444e-22     3.2465246735834978   0                     3.2465246735834978    0                     0                    0                    0                    0                    0                      7                             1                           2                     0.99384082335896384  0.022369475934874955 -0.10853582068412197       0                                 0                                   0                                 1.25e-11                         1.125e-10                 
                      -3.2454049748763314e-22                          39                                          22.483336651933104                   3.13338193513577e-12                 1.402470580816713e-22            -3.2454049748763314e-22     2.2313016014842981   0                     2.2313016014842981    0                     0                    0                    0                    0                    0                      8                             2                           2                     0.99173658379423135  0.022726400007381305 -0.12626186719216584       0                                 0                                   0                                 3.75e-11                         1.5e-10                   
                      -3.206011117890304e-20                          40                                          22.275804151357654                   3.135440448479071e-12                -3.1735570681415405e-20            -3.2454049748763314e-22     2.2313016014842981   0                     2.2313016014842981    0                    -3.1735570681415405e-20  5                    5                    0                    0                      9                             0                           3                     0.99173658379423135  0.022726400007381305 -0.12626186719216584       0                                 0                                   0                                 0                                1.5e-10                   
                      -3.2021971729390582e-20                          46                                          19.758513980115659                   2.9664596484708319e-12                 3.8139449512457516e-23            -3.0529752403856543e-22     1.9691167520419408   0                     1.9691167520419408    0                    -3.1716674205352016e-20  5                    5                    0                    0                      10                            1                           3                     0.99114606891725032  0.024225449345021778 -0.1305473005232699        0                                 0                                   0                                 1.25e-11                         1.6250000000000001e-10       
                      -3.19202824096315e-20                          52                                          14.095986782583337                   2.4593040794302406e-12                 1.0168931975908077e-22            -2.5033369292412895e-22     1.353352832366127    0                     1.353352832366127     0                    -3.1669948716707372e-20  5                    5                    0                    0                      11                            2                           3                     0.98968589739710522  0.028902026569826048 -0.14030857904434618       0                                 0                                   0                                 3.75e-11                         2.0000000000000001e-10       
                      -6.3590231126338872e-20                          53                                          17.768658162859307                   2.4333696331059289e-12                -3.1669948716707372e-20            -2.5033369292412895e-22     1.353352832366127    0                     1.353352832366127     0                    -6.3339897433414743e-20  10                   10                   0                    0                      12                            0                           4                     0.98968589739710522  0.028902026569826048 -0.14030857904434618       0                                 0                                   0                                 0                                2.0000000000000001e-10       
                      -6.3560077904043818e-20                          59                                          16.854605468197459                   2.3870384191484894e-12                 3.0153222295054713e-23            -2.4499923725613817e-22     1.1943296826671963   0                     1.1943296826671963    0                    -6.3315078666787675e-20  10                   10                   0                    0                      13                            1                           4                     0.98929810416855735  0.032052398409609599 -0.14234431792203672       0                                 0                                   0                                 1.25e-11                         2.1250000000000002e-10       
                      -6.347484425559647e-20                          65                                          15.312597755329637                   2.1370592674617869e-12                 8.5233648447346621e-23            -2.1890209942117808e-22     0.82084998623898808  0                     0.82084998623898808   0                    -6.3255942156175294e-20  10                   10                   0                    0                      14                            2                           4                     0.98837409619023886  0.041668336002872071 -0.14622036710007355       0                                 0                                   0                                 3.75e-11                         2.5000000000000002e-10       
                      -2.1890209942117808e-22                          66                                          8.2661087582410904                   2.1738788263488086e-12                 6.3255942156175294e-20            -2.1890209942117808e-22     0.82084998623898808  0                     0.82084998623898808   0                     0                    0                    0                    0                    0                      15                            0                           5                     0.98837409619023886  0.041668336002872071 -0.14622036710007355       0                                 0                                   0                                 0                                2.5000000000000002e-10       
                      -1.9333744289129049e-22                          72                                          7.2948050587773414                   1.9215817300798831e-12                 2.5564656529887577e-23            -1.9333744289129049e-22     0.72439757034251429  0                     0.72439757034251429   0                     0                    0                    0                    0                    0                      16                            1                           5                     0.98812323420392767  0.041702204270895792 -0.1478965861178631        0                                 0                                   0                                 1.25e-11                         2.6250000000000002e-10       
                      -1.3313220275294757e-22                          78                                          5.0136246322050537                   1.3257515880893821e-12                 6.0205240138342927e-23            -1.3313220275294757e-22     0.49787068367863951  0                     0.49787068367863951   0                     0                    0                    0                    0                    0                      17                            2                           5                     0.98752288151208423  0.041781746469681788 -0.15183163093378588       0                                 0                                   0                                 3.75e-11                         3e-10                     
                      -3.1733864411139648e-20                          79                                          8.2004568156724993                   1.3164194318742867e-12                -3.1600732208386697e-20            -1.3313220275294757e-22     0.49787068367863951  0                     0.49787068367863951   0                    -3.1600732208386697e-20  5                    5                    0                    0                      18                            0                           6                     0.98752288151208423  0.041781746469681788 -0.15183163093378588       0                                 0                                   0                                 0                                3e-10                     
                      -3.1718094241438985e-20                          85                                          8.0099511935770735                   1.2080006970433371e-12                 1.5770169700657998e-23            -1.2222189280475525e-22     0.43936933623407426  0                     0.43936933623407426   0                    -3.159587234863423e-20  5                    5                    0                    0                      19                            1                           6                     0.9873710108948196   0.043464960287007789 -0.15234593552763659       0                                 0                                   0                                 1.25e-11                         3.1250000000000001e-10       
                      -3.1678301408774381e-20                          91                                          7.7504041629279437                   9.2445362798898951e-13                 3.9792832664603677e-23            -9.3776535880942009e-23     0.30197383422318486  0                     0.30197383422318486   0                    -3.1584524872893443e-20  5                    5                    0                    0                      20                            2                           6                     0.98701640227791998  0.048522693262780039 -0.15311489108795881       0                                 0                                   0                                 3.75e-11                         3.5000000000000003e-10       
                      -1.9044491459617006e-20                          92                                          4.9003433438267123                   9.3244380024016852e-13                 1.2633809949157377e-20            -9.3776535880942009e-23     0.30197383422318486  0                     0.30197383422318486   0                    -1.8950714923736065e-20  3.0000000000000004   3.0000000000000004   0                    0                      21                            0                           7                     0.98701640227791998  0.048522693262780039 -0.15311489108795881       0                                 0                                   0                                 0                                3.5000000000000003e-10       
                      -1.9033424410238991e-20                          98                                          4.7968176412606081                   8.3981884164727678e-13                 1.1067049378017153e-23            -8.4491792654697911e-23     0.26649097336355487  0                     0.26649097336355487   0                    -1.8948932617584292e-20  3.0000000000000004   3.0000000000000004   0                    0                      22                            1                           7                     0.98692357383251506  0.049539548884780432 -0.15338739358222561       0                                 0                                   0                                 1.25e-11                         3.6249999999999999e-10       
                      -1.9006424934852311e-20                          104                                         4.6637061343519921                   6.1162256608573288e-13                 2.6999475386679393e-23            -6.1644257876508229e-23     0.18315638888734179  0                     0.18315638888734179   0                    -1.8944780676975803e-20  3.0000000000000004   3.0000000000000004   0                    0                      23                            2                           7                     0.98670732692582297  0.052588475628491088 -0.15376313999775373       0                                 0                                   0                                 3.75e-11                         4.0000000000000001e-10       
                      -6.3765711502017756e-21                          105                                         2.0372014031342918                   6.1552286272760545e-13                 1.2629853784650536e-20            -6.1644257876508229e-23     0.18315638888734179  0                     0.18315638888734179   0                    -6.3149268923252678e-21  1                    1                    0                    0                      24                            0                           8                     0.98670732692582297  0.052588475628491088 -0.15376313999775373       0                                 0                                   0                                 0                                4.0000000000000001e-10       
                      -6.3693153179172647e-21                          111                                         1.9041409301628429                   5.4675942165441556e-13                 7.2558322845107186e-24            -5.4756291817999422e-23     0.16163494588165875  0                     0.16163494588165875   0                    -6.3145590260992655e-21  1                    1                    0                    0                      25                            1                           8                     0.98664984782801013  0.05293205964771043 -0.15401387873310543       0                                 0                                   0                                 1.25e-11                         4.1250000000000002e-10       
                      -6.3520623695052935e-21                          117                                         1.6642573928775413                   3.8303194532002273e-13                 1.7252948411971404e-23            -3.8364574522368155e-23     0.11108996538242308  0                     0.11108996538242308   0                    -6.3136977949829257e-21  1                    1                    0                    0                      26                            2                           8                     0.98651528046608195  0.05396045221982293 -0.15451818987795526       0                                 0                                   0                                 3.75e-11                         4.5e-10                   
                      -6.3520623695052935e-21                          118                                         1.6642573928775413                   3.8303194532002273e-13                 0                              -3.8364574522368155e-23     0.11108996538242308  0                     0.11108996538242308   0                    -6.3136977949829257e-21  1                    1                    0                    0                      27                            0                           9                     0.98651528046608195  0.05396045221982293 -0.15451818987795526       0                                 0                                   0                                 0                                4.5e-10                   
                      -6.3475478939267638e-21                          124                                         1.6231555400212467                   3.4012843558665874e-13                 4.5144755785299687e-24            -3.4071229206453797e-23     0.098036550358218288  0                     0.098036550358218288   0                    -6.31347666472031e-21  1                    1                    0                    0                      28                            1                           9                     0.98648072886254823  0.054302497834289941 -0.15461891964365951       0                                 0                                   0                                 1.25e-11                         4.6250000000000001e-10       
                      -6.3368201860680141e-21                          130                                         1.5674683198237949                   2.3803916034826693e-13                 1.0727707858749657e-23            -2.385836421518738e-23     0.067379469990854673  0                     0.067379469990854673   0                    -6.3129618218528267e-21  1                    1                    0                    0                      29                            2                           9                     0.98640028466450402  0.055326487565559752 -0.15476904789861373       0                                 0                                   0                                 3.75e-11                         5.0000000000000003e-10       
                      -6.3368201860680141e-21                          131                                         1.5674683198237949                   2.3803916034826693e-13                 0                              -2.385836421518738e-23     0.067379469990854673  0                     0.067379469990854673   0                    -6.3129618218528267e-21  1                    1                    0                    0                      30                            0                           10                    0.98640028466450402  0.055326487565559752 -0.15476904789861373       0                                 0                                   0                                 0                                5.0000000000000003e-10       
                      -6.3340150859828392e-21                          137                                         1.5630390639635436                   2.1130422235340636e-13                 2.8051000851747007e-24            -2.1184563137800552e-23     0.059462173564720951  0                     0.059462173564720951   0                    -6.3128305228450384e-21  1                    1                    0                    0                      31                            1                           10                    0.98637976919453718  0.055667120655764582 -0.15477765536933336       0                                 0                                   0                                 1.25e-11                         5.1250000000000004e-10       
                      -6.3273538544798679e-21                          143                                         1.5693147471277991                   1.4772095942817768e-13                 6.6612315029712257e-24            -1.4826672475144316e-23     0.040867714384640631  0                     0.040867714384640631   0                    -6.3125271820047239e-21  1                    1                    0                    0                      32                            2                           10                    0.98633237218823799  0.056686986515496827 -0.15470952502452823       0                                 0                                   0                                 3.75e-11                         5.5000000000000007e-10       
# Table End
