# ODT 1.0
# Table Start
# Title: mmArchive Data Table, Wed Jun 16 18:51:21 EDT 2010
# Columns: {Oxs_RungeKuttaEvolve:evolve:Total energy} {Oxs_RungeKuttaEvolve:evolve:Energy calc count} {Oxs_RungeKuttaEvolve:evolve:Max dm/dt} Oxs_RungeKuttaEvolve:evolve:dE/dt {Oxs_RungeKuttaEvolve:evolve:Delta E} Oxs_ScriptUZeeman::Energy Oxs_ScriptUZeeman::B Oxs_ScriptUZeeman::Bx Oxs_ScriptUZeeman::By Oxs_ScriptUZeeman::Bz Oxs_UZeeman::Energy  Oxs_UZeeman::B       Oxs_UZeeman::Bx      Oxs_UZeeman::By      Oxs_UZeeman::Bz      Oxs_TimeDriver::Iteration {Oxs_TimeDriver::Stage iteration} Oxs_TimeDriver::Stage Oxs_TimeDriver::mx   Oxs_TimeDriver::my   Oxs_TimeDriver::mz   {Oxs_TimeDriver::Max Spin Ang} {Oxs_TimeDriver::Stage Max Spin Ang} {Oxs_TimeDriver::Run Max Spin Ang} {Oxs_TimeDriver::Last time step} {Oxs_TimeDriver::Simulation time}
# Units:                       J                                            {}                                        deg/ns                                 J/s                                  J                               J                      mT                   mT                    mT                    mT                    J                 mT                   mT                   mT                   mT                        {}                            {}                          {}                   {}                   {}                   {}                        deg                               deg                                 deg                                s                                 s                
                      -1.279680119950022e-21                          1                                           100.7692059977275                    1.054649560725613e-11                 0                              -1.279680119950022e-21     10                   0                     10                    0                     0                    0                    0                    0                    0                      0                             0                           0                     0.99975009371095458  0.019995001874219091  0.0099975009371095457       0                                 0                                   0                                 0                                0                         
                      -1.1526483437606464e-21                          7                                           88.927769647465695                   9.7739729462615426e-12                 1.2703177618937571e-22            -1.1526483437606464e-21     8.8249690258459541   0                     8.8249690258459541    0                     0                    0                    0                    0                    0                      1                             1                           0                     0.99973486001606116  0.020408151369725246 -0.010663818562644383       0                                 0                                   0                                 1.25e-11                         1.25e-11                  
                      -8.298675286182687e-22                          13                                          61.117863096223928                   7.4708815250810801e-12                 3.227808151423776e-22            -8.298675286182687e-22     6.0653065971263347   0                     6.0653065971263347    0                     0                    0                    0                    0                    0                      2                             2                           0                     0.99801993313063131  0.021378441348379483 -0.059153827597579617       0                                 0                                   0                                 3.75e-11                         5.0000000000000002e-11       
                      -8.298675286182687e-22                          14                                          61.117863096223928                   7.4708815250810801e-12                 0                              -8.298675286182687e-22     6.0653065971263347   0                     6.0653065971263347    0                     0                    0                    0                    0                    0                      3                             0                           1                     0.99801993313063131  0.021378441348379483 -0.059153827597579617       0                                 0                                   0                                 0                                5.0000000000000002e-11       
                      -5.230951470123305e-22                          20                                          37.069179507947787                   4.9264343084933977e-12                 3.067723816059382e-22            -5.230951470123305e-22     3.6787944117144238   0                     3.6787944117144238    0                     0                    0                    0                    0                    0                      4                             1                           1                     0.99464061593888753  0.022217500510605167 -0.10097736278875424       0                                 0                                   0                                 5.0000000000000002e-11              1e-10                     
                      -5.230951470123305e-22                          21                                          37.069179507947787                   4.9264343084933977e-12                 0                              -5.230951470123305e-22     3.6787944117144238   0                     3.6787944117144238    0                     0                    0                    0                    0                    0                      5                             0                           2                     0.99464061593888753  0.022217500510605167 -0.10097736278875424       0                                 0                                   0                                 0                                1e-10                     
                      -3.2454050299788182e-22                          27                                          22.48333665173584                    3.1333819902402224e-12                 1.985546440144487e-22            -3.2454050299788182e-22     2.2313016014842981   0                     2.2313016014842981    0                     0                    0                    0                    0                    0                      6                             1                           2                     0.99173658349295857  0.022726400393244139 -0.12626186948908949       0                                 0                                   0                                 5.0000000000000002e-11              1.5e-10                   
                      -3.2060111174772564e-20                          28                                          22.275804166101178                   3.1354405034359949e-12                -3.1735570671774681e-20            -3.2454050299788182e-22     2.2313016014842981   0                     2.2313016014842981    0                    -3.1735570671774681e-20  5                    5                    0                    0                      7                             0                           3                     0.99173658349295857  0.022726400393244139 -0.12626186948908949       0                                 0                                   0                                 0                                1.5e-10                   
                      -3.1920282406670678e-20                          34                                          14.095986799211833                   2.4593041664958605e-12                 1.3982876810188317e-22            -2.5033370164107977e-22     1.353352832366127    0                     1.353352832366127     0                    -3.1669948705029598e-20  5                    5                    0                    0                      8                             1                           3                     0.9896858970321748   0.028902027576232902 -0.14030858141112432       0                                 0                                   0                                 5.0000000000000002e-11              2.0000000000000001e-10       
                      -6.3590231111700275e-20                          35                                          17.768658292787848                   2.4333697192522026e-12                -3.1669948705029598e-20            -2.5033370164107977e-22     1.353352832366127    0                     1.353352832366127     0                    -6.3339897410059195e-20  10                   10                   0                    0                      9                             0                           4                     0.9896858970321748   0.028902027576232902 -0.14030858141112432       0                                 0                                   0                                 0                                2.0000000000000001e-10       
                      -6.3474844248629105e-20                          41                                          15.312597826958955                   2.1370593679361448e-12                 1.153868630711726e-22            -2.1890210951722715e-22     0.82084998623898808  0                     0.82084998623898808   0                    -6.325594213911188e-20  10                   10                   0                    0                      10                            1                           4                     0.98837409592362291  0.04166833792466984 -0.14622036835460536       0                                 0                                   0                                 5.0000000000000002e-11              2.5000000000000002e-10       
                      -2.1890210951722715e-22                          42                                          8.2661087575780048                   2.1738789273117289e-12                 6.325594213911188e-20            -2.1890210951722715e-22     0.82084998623898808  0                     0.82084998623898808   0                     0                    0                    0                    0                    0                      11                            0                           5                     0.98837409592362291  0.04166833792466984 -0.14622036835460536       0                                 0                                   0                                 0                                2.5000000000000002e-10       
                      -1.331322089246486e-22                          48                                          5.0136246317986055                   1.3257516498072958e-12                 8.5769900592578551e-23            -1.331322089246486e-22     0.49787068367863951  0                     0.49787068367863951   0                     0                    0                    0                    0                    0                      12                            1                           5                     0.98752288118927345  0.041781748406586931 -0.151831632500361         0                                 0                                   0                                 5.0000000000000002e-11              3e-10                     
                      -3.1733864406981403e-20                          49                                          8.2004568555808639                   1.3164194934462473e-12                -3.1600732198056755e-20            -1.331322089246486e-22     0.49787068367863951  0                     0.49787068367863951   0                    -3.1600732198056755e-20  5                    5                    0                    0                      13                            0                           6                     0.98752288118927345  0.041781748406586931 -0.151831632500361         0                                 0                                   0                                 0                                3e-10                     
                      -3.1678301402006429e-20                          55                                          7.7504042315343185                   9.2445366844587184e-13                 5.5563004974977151e-23            -9.3776539950197271e-23     0.30197383422318486  0                     0.30197383422318486   0                    -3.1584524862056229e-20  5                    5                    0                    0                      14                            1                           6                     0.9870164019392571   0.048522695368330461 -0.15311489260380626       0                                 0                                   0                                 5.0000000000000002e-11              3.5000000000000003e-10       
                      -1.9044491457183937e-20                          56                                          4.9003433672780252                   9.3244384088178698e-13                 1.2633809944822492e-20            -9.3776539950197271e-23     0.30197383422318486  0                     0.30197383422318486   0                    -1.8950714917233737e-20  3.0000000000000004   3.0000000000000004   0                    0                      15                            0                           7                     0.9870164019392571   0.048522695368330461 -0.15311489260380626       0                                 0                                   0                                 0                                3.5000000000000003e-10       
                      -1.9006424930568995e-20                          62                                          4.6637061776450883                   6.1162259155953603e-13                 3.8066526614939734e-23            -6.1644260432837362e-23     0.18315638888734179  0                     0.18315638888734179   0                    -1.8944780670136157e-20  3.0000000000000004   3.0000000000000004   0                    0                      16                            1                           7                     0.98670732656959148  0.052588477809285487 -0.15376314153785972       0                                 0                                   0                                 5.0000000000000002e-11              4.0000000000000001e-10       
                      -6.3765711504782233e-21                          63                                          2.0372014009882622                   6.1552288829283458e-13                 1.2629853780090773e-20            -6.1644260432837362e-23     0.18315638888734179  0                     0.18315638888734179   0                    -6.3149268900453866e-21  1                    1                    0                    0                      17                            0                           8                     0.98670732656959148  0.052588477809285487 -0.15376314153785972       0                                 0                                   0                                 0                                4.0000000000000001e-10       
                      -6.352062368708212e-21                          69                                          1.664257400422668                    3.8303196097426128e-13                 2.4508781770011741e-23            -3.8364576088348558e-23     0.11108996538242308  0                     0.11108996538242308   0                    -6.3136977926198631e-21  1                    1                    0                    0                      18                            1                           8                     0.98651528009685352  0.053960454422402049 -0.15451819146610071       0                                 0                                   0                                 5.0000000000000002e-11              4.5e-10                   
                      -6.352062368708212e-21                          70                                          1.664257400422668                    3.8303196097426128e-13                 0                              -3.8364576088348558e-23     0.11108996538242308  0                     0.11108996538242308   0                    -6.3136977926198631e-21  1                    1                    0                    0                      19                            0                           9                     0.98651528009685352  0.053960454422402049 -0.15451819146610071       0                                 0                                   0                                 0                                4.5e-10                   
                      -6.3368201846123586e-21                          76                                          1.5674683344186755                   2.380391699166617e-13                 1.5242184095853111e-23            -2.3858365173040803e-23     0.067379469990854673  0                     0.067379469990854673   0                    -6.3129618194393175e-21  1                    1                    0                    0                      20                            1                           9                     0.98640028428739324  0.055326489786779322 -0.15476904950804313       0                                 0                                   0                                 5.0000000000000002e-11              5.0000000000000003e-10       
                      -6.3368201846123586e-21                          77                                          1.5674683344186755                   2.380391699166617e-13                 0                              -2.3858365173040803e-23     0.067379469990854673  0                     0.067379469990854673   0                    -6.3129618194393175e-21  1                    1                    0                    0                      21                            0                           10                    0.98640028428739324  0.055326489786779322 -0.15476904950804313       0                                 0                                   0                                 0                                5.0000000000000003e-10       
                      -6.3273538526213763e-21                          83                                          1.56931476571192                     1.4772096526873393e-13                 9.4663319909820709e-24            -1.4826673060492554e-23     0.040867714384640631  0                     0.040867714384640631   0                    -6.3125271795608843e-21  1                    1                    0                    0                      22                            1                           10                    0.986332371806388    0.056686988753465437 -0.15470952663895543       0                                 0                                   0                                 5.0000000000000002e-11              5.5000000000000007e-10       
# Table End
