# ODT 1.0
# Table Start
# Title: mmArchive Data Table, Wed Jun 16 18:51:10 EDT 2010
# Columns: {Oxs_RungeKuttaEvolve:evolve:Total energy} {Oxs_RungeKuttaEvolve:evolve:Energy calc count} {Oxs_RungeKuttaEvolve:evolve:Max dm/dt} Oxs_RungeKuttaEvolve:evolve:dE/dt {Oxs_RungeKuttaEvolve:evolve:Delta E} Oxs_ScriptUZeeman::Energy Oxs_ScriptUZeeman::B Oxs_ScriptUZeeman::Bx Oxs_ScriptUZeeman::By Oxs_ScriptUZeeman::Bz Oxs_UZeeman::Energy  Oxs_UZeeman::B       Oxs_UZeeman::Bx      Oxs_UZeeman::By      Oxs_UZeeman::Bz      Oxs_TimeDriver::Iteration {Oxs_TimeDriver::Stage iteration} Oxs_TimeDriver::Stage Oxs_TimeDriver::mx   Oxs_TimeDriver::my   Oxs_TimeDriver::mz   {Oxs_TimeDriver::Max Spin Ang} {Oxs_TimeDriver::Stage Max Spin Ang} {Oxs_TimeDriver::Run Max Spin Ang} {Oxs_TimeDriver::Last time step} {Oxs_TimeDriver::Simulation time}
# Units:                       J                                            {}                                        deg/ns                                 J/s                                  J                               J                      mT                   mT                    mT                    mT                    J                 mT                   mT                   mT                   mT                        {}                            {}                          {}                   {}                   {}                   {}                        deg                               deg                                 deg                                s                                 s                
                      -1.279680119950022e-22                          1                                           10.07692059977275                    1.7486947825997281e-14                 0                              -1.279680119950022e-22     1                    0                     1                     0                     0                    0                    0                    0                    0                      0                             0                           0                     0.99975009371095458  0.019995001874219091  0.0099975009371095457       0                                 0                                   0                                 0                                0                         
                      -1.2774777947607012e-22                          3                                           10.037548811646017                   1.7750179795452819e-14                 2.2023251893209609e-25            -1.2774777947607012e-22     0.99609375000000011  0                     0.99609375000000011   0                     0                    0                    0                    0                    0                      1                             1                           0                     0.9997687449603937   0.020038867368795309  0.0078038705073311234       0                                 0                                   0                                 1.25e-11                         1.25e-11                  
                      -1.2706744394739007e-22                          5                                           9.9194339533931579                   1.8533694589307964e-14                 6.8033552868004939e-25            -1.2706744394739007e-22     0.98437500000000011  0                     0.98437500000000011   0                     0                    0                    0                    0                    0                      2                             2                           0                     0.99979576412781934  0.020169435547204771  0.0012743240470544559       0                                 0                                   0                                 3.75e-11                         5.0000000000000002e-11       
                      -1.2706744394739007e-22                          6                                           9.9194339533931579                   1.8533694589307964e-14                 0                              -1.2706744394739007e-22     0.98437500000000011  0                     0.98437500000000011   0                     0                    0                    0                    0                    0                      3                             0                           1                     0.99979576412781934  0.020169435547204771  0.0012743240470544559       0                                 0                                   0                                 0                                5.0000000000000002e-11       
                      -1.261149714713836e-22                          8                                           9.7619486585911943                   1.9563953253602113e-14                 9.5247247600645749e-25            -1.261149714713836e-22     0.96875000000000011  0                     0.96875000000000011   0                     0                    0                    0                    0                    0                      4                             1                           1                     0.99976636277440978  0.020341124430868319 -0.007311533472203321       0                                 0                                   0                                 5.0000000000000002e-11              1e-10                     
                      -1.261149714713836e-22                          9                                           9.7619486585911943                   1.9563953253602113e-14                 0                              -1.261149714713836e-22     0.96875000000000011  0                     0.96875000000000011   0                     0                    0                    0                    0                    0                      5                             0                           2                     0.99976636277440978  0.020341124430868319 -0.007311533472203321       0                                 0                                   0                                 0                                1e-10                     
                      -1.2511139754078427e-22                          11                                          9.6044647176134657                   2.0577717383158113e-14                 1.0035739305993423e-24            -1.2511139754078427e-22     0.95312500000000011  0                     0.95312500000000011   0                     0                    0                    0                    0                    0                      6                             1                           2                     0.99966543275604913  0.020510065170620369 -0.015759434614158897       0                                 0                                   0                                 5.0000000000000002e-11              1.5e-10                   
                      -3.211440524573436e-20                          12                                          8.6077268276951866                   2.4600522588389493e-14                -3.1989293848193578e-20            -1.2511139754078427e-22     0.95312500000000011  0                     0.95312500000000011   0                    -3.1989293848193578e-20  5                    5                    0                    0                      7                             0                           3                     0.99966543275604913  0.020510065170620369 -0.015759434614158897       0                                 0                                   0                                 0                                1.5e-10                   
                      -3.2113117895088684e-20                          14                                          8.4437611182397205                   2.722966825890043e-14                 1.2873506456746932e-24            -1.2908907198207765e-22     0.93750000000000011  0                     0.93750000000000011   0                    -3.1984028823106606e-20  5                    5                    0                    0                      8                             1                           3                     0.99950090072208131  0.021514845330346269 -0.023131383144103856       0                                 0                                   0                                 5.0000000000000002e-11              2.0000000000000001e-10       
                      -6.4097146718195297e-20                          15                                          7.6433450204505897                   3.0083179369942921e-14                -3.1984028823106606e-20            -1.2908907198207765e-22     0.93750000000000011  0                     0.93750000000000011   0                    -6.3968057646213213e-20  10                   10                   0                    0                      9                             0                           4                     0.99950090072208131  0.021514845330346269 -0.023131383144103856       0                                 0                                   0                                 0                                2.0000000000000001e-10       
                      -6.4095520374473299e-20                          17                                          7.4824105393107923                   3.5492928598007336e-14                 1.6263437219888835e-24            -1.4130496720123126e-22     0.92187500000000011  0                     0.92187500000000011   0                    -6.3954215407272069e-20  10                   10                   0                    0                      10                            1                           4                     0.99928461573862604  0.023949994440886652 -0.029268660959942353       0                                 0                                   0                                 5.0000000000000002e-11              2.5000000000000002e-10       
                      -1.4130496720123126e-22                          18                                          9.2888535384599251                   2.8779012867539033e-14                 6.3954215407272069e-20            -1.4130496720123126e-22     0.92187500000000011  0                     0.92187500000000011   0                     0                    0                    0                    0                    0                      11                            0                           5                     0.99928461573862604  0.023949994440886652 -0.029268660959942353       0                                 0                                   0                                 0                                2.5000000000000002e-10       
                      -1.3984188251705216e-22                          20                                          9.1313800655320723                   2.9743181282308626e-14                 1.4630846841790993e-24            -1.3984188251705216e-22     0.90625000000000011  0                     0.90625000000000011   0                     0                    0                    0                    0                    0                      12                            1                           5                     0.99901321286447664  0.02411066939949175 -0.037299814252947032       0                                 0                                   0                                 5.0000000000000002e-11              3e-10                     
                      -3.2108264694180307e-20                          21                                          8.1373865130396421                   3.3547095484810706e-14                -3.1968422811663257e-20            -1.3984188251705216e-22     0.90625000000000011  0                     0.90625000000000011   0                    -3.1968422811663257e-20  5                    5                    0                    0                      13                            0                           6                     0.99901321286447664  0.02411066939949175 -0.037299814252947032       0                                 0                                   0                                 0                                3e-10                     
                      -3.2106484451179094e-20                          23                                          7.9779986717991473                   3.7970276792776964e-14                 1.7802430012119663e-24            -1.484145994991665e-22     0.89062500000000011  0                     0.89062500000000011   0                    -3.1958069851679929e-20  5                    5                    0                    0                      14                            1                           6                     0.99868968286499771  0.02603764903494149 -0.044056306832774769       0                                 0                                   0                                 5.0000000000000002e-11              3.5000000000000003e-10       
                      -1.9323256510507124e-20                          24                                          8.2947191060488592                   3.6828129794035973e-14                 1.2783227940671971e-20            -1.484145994991665e-22     0.89062500000000011  0                     0.89062500000000011   0                    -1.9174841911007956e-20  3.0000000000000004   3.0000000000000004   0                    0                      15                            0                           7                     0.99868968286499771  0.02603764903494149 -0.044056306832774769       0                                 0                                   0                                 0                                3.5000000000000003e-10       
                      -1.9321335512462189e-20                          26                                          8.1353527283911529                   4.0202706507215518e-14                 1.9209980449365704e-24            -1.5363492380099934e-22     0.87500000000000011  0                     0.87500000000000011   0                    -1.9167700588661189e-20  3.0000000000000004   3.0000000000000004   0                    0                      16                            1                           7                     0.9983177389927701   0.027434807821607021 -0.051078599551621001       0                                 0                                   0                                 5.0000000000000002e-11              4.0000000000000001e-10       
                      -6.5428684533547292e-21                          27                                          8.5551123959078268                   3.8650122983340256e-14                 1.2778467059107459e-20            -1.5363492380099934e-22     0.87500000000000011  0                     0.87500000000000011   0                    -6.3892335295537296e-21  1                    1                    0                    0                      17                            0                           8                     0.9983177389927701   0.027434807821607021 -0.051078599551621001       0                                 0                                   0                                 0                                4.0000000000000001e-10       
                      -6.5408911961415413e-21                          29                                          8.3964990299837137                   4.0504737627206112e-14                 1.9772572131876032e-24            -1.5435304710008729e-22     0.85937500000000011  0                     0.85937500000000011   0                    -6.3865381490414538e-21  1                    1                    0                    0                      18                            1                           8                     0.997896585787727    0.02806419038183405 -0.058436335369440359       0                                 0                                   0                                 5.0000000000000002e-11              4.5e-10                   
                      -6.5408911961415413e-21                          30                                          8.3964990299837137                   4.0504737627206112e-14                 0                              -1.5435304710008729e-22     0.85937500000000011  0                     0.85937500000000011   0                    -6.3865381490414538e-21  1                    1                    0                    0                      19                            0                           9                     0.997896585787727    0.02806419038183405 -0.058436335369440359       0                                 0                                   0                                 0                                4.5e-10                   
                      -6.5388184068690696e-21                          32                                          8.2380291903591161                   4.2470056775587005e-14                 2.0727892724717482e-24            -1.5527571738746508e-22     0.84375000000000011  0                     0.84375000000000011   0                    -6.3835426894816047e-21  1                    1                    0                    0                      20                            1                           9                     0.9974285452315006   0.028754762479160194 -0.065646483471238165       0                                 0                                   0                                 5.0000000000000002e-11              5.0000000000000003e-10       
                      -6.5388184068690696e-21                          33                                          8.2380291903591161                   4.2470056775587005e-14                 0                              -1.5527571738746508e-22     0.84375000000000011  0                     0.84375000000000011   0                    -6.3835426894816047e-21  1                    1                    0                    0                      21                            0                           10                    0.9974285452315006   0.028754762479160194 -0.065646483471238165       0                                 0                                   0                                 0                                5.0000000000000003e-10       
                      -6.5366446167618482e-21                          35                                          8.0797221125902734                   4.4543418193368092e-14                 2.1737901072211532e-24            -1.5637762527859616e-22     0.82812500000000011  0                     0.82812500000000011   0                    -6.380266991483252e-21  1                    1                    0                    0                      22                            1                           10                    0.99691671741925802  0.029505212316716253 -0.072708328107286085       0                                 0                                   0                                 5.0000000000000002e-11              5.5000000000000007e-10       
# Table End
