# ODT 1.0
# Table Start
# Title: mmArchive Data Table, Wed Jun 16 18:51:11 EDT 2010
# Columns: {Oxs_RungeKuttaEvolve:evolve:Total energy} {Oxs_RungeKuttaEvolve:evolve:Energy calc count} {Oxs_RungeKuttaEvolve:evolve:Max dm/dt} Oxs_RungeKuttaEvolve:evolve:dE/dt {Oxs_RungeKuttaEvolve:evolve:Delta E} Oxs_ScriptUZeeman::Energy Oxs_ScriptUZeeman::B Oxs_ScriptUZeeman::Bx Oxs_ScriptUZeeman::By Oxs_ScriptUZeeman::Bz Oxs_UZeeman::Energy  Oxs_UZeeman::B       Oxs_UZeeman::Bx      Oxs_UZeeman::By      Oxs_UZeeman::Bz      Oxs_TimeDriver::Iteration {Oxs_TimeDriver::Stage iteration} Oxs_TimeDriver::Stage Oxs_TimeDriver::mx   Oxs_TimeDriver::my   Oxs_TimeDriver::mz   {Oxs_TimeDriver::Max Spin Ang} {Oxs_TimeDriver::Stage Max Spin Ang} {Oxs_TimeDriver::Run Max Spin Ang} {Oxs_TimeDriver::Last time step} {Oxs_TimeDriver::Simulation time}
# Units:                       J                                            {}                                        deg/ns                                 J/s                                  J                               J                      mT                   mT                    mT                    mT                    J                 mT                   mT                   mT                   mT                        {}                            {}                          {}                   {}                   {}                   {}                        deg                               deg                                 deg                                s                                 s                
                      -1.279680119950022e-22                          1                                           10.07692059977275                    1.7486947825997281e-14                 0                              -1.279680119950022e-22     1                    0                     1                     0                     0                    0                    0                    0                    0                      0                             0                           0                     0.99975009371095458  0.019995001874219091  0.0099975009371095457       0                                 0                                   0                                 0                                0                         
                      -1.2774777947607012e-22                          3                                           10.037548811646017                   1.7750179795452819e-14                 2.2023251893209609e-25            -1.2774777947607012e-22     0.99609375000000011  0                     0.99609375000000011   0                     0                    0                    0                    0                    0                      1                             1                           0                     0.9997687449603937   0.020038867368795309  0.0078038705073311234       0                                 0                                   0                                 1.25e-11                         1.25e-11                  
                      -1.2706744394739007e-22                          5                                           9.9194339533931579                   1.8533694589307964e-14                 6.8033552868004939e-25            -1.2706744394739007e-22     0.98437500000000011  0                     0.98437500000000011   0                     0                    0                    0                    0                    0                      2                             2                           0                     0.99979576412781934  0.020169435547204771  0.0012743240470544559       0                                 0                                   0                                 3.75e-11                         5.0000000000000002e-11       
                      -1.2706744394739007e-22                          6                                           9.9194339533931579                   1.8533694589307964e-14                 0                              -1.2706744394739007e-22     0.98437500000000011  0                     0.98437500000000011   0                     0                    0                    0                    0                    0                      3                             0                           1                     0.99979576412781934  0.020169435547204771  0.0012743240470544559       0                                 0                                   0                                 0                                5.0000000000000002e-11       
                      -1.261149714713836e-22                          8                                           9.7619486585911943                   1.9563953253602113e-14                 9.5247247600645749e-25            -1.261149714713836e-22     0.96875000000000011  0                     0.96875000000000011   0                     0                    0                    0                    0                    0                      4                             1                           1                     0.99976636277440978  0.020341124430868319 -0.007311533472203321       0                                 0                                   0                                 5.0000000000000002e-11              1e-10                     
                      -1.261149714713836e-22                          9                                           9.7619486585911943                   1.9563953253602113e-14                 0                              -1.261149714713836e-22     0.96875000000000011  0                     0.96875000000000011   0                     0                    0                    0                    0                    0                      5                             0                           2                     0.99976636277440978  0.020341124430868319 -0.007311533472203321       0                                 0                                   0                                 0                                1e-10                     
                      -1.2511139754078427e-22                          11                                          9.6044647176134657                   2.0577717383158113e-14                 1.0035739305993423e-24            -1.2511139754078427e-22     0.95312500000000011  0                     0.95312500000000011   0                     0                    0                    0                    0                    0                      6                             1                           2                     0.99966543275604913  0.020510065170620369 -0.015759434614158897       0                                 0                                   0                                 5.0000000000000002e-11              1.5e-10                   
                      -3.211440524573436e-20                          12                                          8.6077268276951866                   2.4600522588389493e-14                -3.1989293848193578e-20            -1.2511139754078427e-22     0.95312500000000011  0                     0.95312500000000011   0                    -3.1989293848193578e-20  5                    5                    0                    0                      7                             0                           3                     0.99966543275604913  0.020510065170620369 -0.015759434614158897       0                                 0                                   0                                 0                                1.5e-10                   
                      -3.211409414072817e-20                          14                                          8.5666584653251139                   2.5198346382149126e-14                 3.1110500618837661e-25            -1.2593975756116456e-22     0.94921875000000011  0                     0.94921875000000011   0                    -3.1988154383167007e-20  5                    5                    0                    0                      8                             1                           3                     0.99962982447396886  0.020730824289903627 -0.017619504715041805       0                                 0                                   0                                 1.25e-11                         1.6250000000000001e-10       
                      -3.2113114728301426e-20                          16                                          8.4437909881574189                   2.7227990490855524e-14                 9.794124267467431e-25            -1.2908437403527736e-22     0.93750000000000011  0                     0.93750000000000011   0                    -3.1984030354266147e-20  5                    5                    0                    0                      9                             2                           3                     0.99950094857081695  0.021514062339212891 -0.023130043832676247       0                                 0                                   0                                 3.75e-11                         2.0000000000000001e-10       
                      -6.4097145082567574e-20                          17                                          7.6433790383987148                   3.0081498146318247e-14                -3.1984030354266147e-20            -1.2908437403527736e-22     0.93750000000000011  0                     0.93750000000000011   0                    -6.3968060708532295e-20  10                   10                   0                    0                      10                            0                           4                     0.99950094857081695  0.021514062339212891 -0.023130043832676247       0                                 0                                   0                                 0                                2.0000000000000001e-10       
                      -6.4096761480452252e-20                          19                                          7.6026786691420822                   3.1333762476520084e-14                 3.8360211532681084e-25            -1.3187684398832515e-22     0.93359375000000011  0                     0.93359375000000011   0                    -6.3964884636463916e-20  10                   10                   0                    0                      11                            1                           4                     0.99945132244474866  0.022071438324405879 -0.024696268417213341       0                                 0                                   0                                 1.25e-11                         2.1250000000000002e-10       
                      -6.4095514406090429e-20                          21                                          7.4825373361745404                   3.5484863574687743e-14                 1.2470743618217385e-24            -1.4128241586756769e-22     0.92187500000000011  0                     0.92187500000000011   0                    -6.3954231990222851e-20  10                   10                   0                    0                      12                            2                           4                     0.99928487484723205  0.023946172180943675 -0.029262941400899453       0                                 0                                   0                                 3.75e-11                         2.5000000000000002e-10       
                      -1.4128241586756769e-22                          22                                          9.2888543892105133                   2.8771364845136369e-14                 6.3954231990222851e-20            -1.4128241586756769e-22     0.92187500000000011  0                     0.92187500000000011   0                     0                    0                    0                    0                    0                      13                            0                           5                     0.99928487484723205  0.023946172180943675 -0.029262941400899453       0                                 0                                   0                                 0                                2.5000000000000002e-10       
                      -1.4092125718834703e-22                          24                                          9.2494858703244507                   2.9013950067202672e-14                 3.6115867922066188e-25            -1.4092125718834703e-22     0.91796875000000011  0                     0.91796875000000011   0                     0                    0                    0                    0                    0                      14                            1                           5                     0.99922268140799608  0.02398659696822928 -0.031283799732417857       0                                 0                                   0                                 1.25e-11                         2.6250000000000002e-10       
                      -1.3981969186034825e-22                          26                                          9.1313809082959434                   2.9735525920906022e-14                 1.1015653279987869e-24            -1.3981969186034825e-22     0.90625000000000011  0                     0.90625000000000011   0                     0                    0                    0                    0                    0                      15                            2                           5                     0.99901351912113967  0.024106843424197971 -0.037294084159788757       0                                 0                                   0                                 3.75e-11                         3e-10                     
                      -3.2108252303736822e-20                          27                                          8.1375077638953979                   3.3539006224821045e-14                -3.1968432611876476e-20            -1.3981969186034825e-22     0.90625000000000011  0                     0.90625000000000011   0                    -3.1968432611876476e-20  5                    5                    0                    0                      16                            0                           6                     0.99901351912113967  0.024106843424197971 -0.037294084159788757       0                                 0                                   0                                 0                                3e-10                     
                      -3.210782662058775e-20                          29                                          8.0974779190247581                   3.4590578738167344e-14                 4.2568314907207685e-25            -1.4183757977091667e-22     0.90234375000000011  0                     0.90234375000000011   0                    -3.1965989040816833e-20  5                    5                    0                    0                      17                            1                           6                     0.99893715752552592  0.024560619873751802 -0.039004246771853116       0                                 0                                   0                                 1.25e-11                         3.1250000000000001e-10       
                      -3.2106469578571898e-20                          31                                          7.9781471118699061                   3.7959711333679446e-14                 1.3570420158530454e-24            -1.483859838657881e-22     0.89062500000000011  0                     0.89062500000000011   0                    -3.1958083594706108e-20  5                    5                    0                    0                      18                            2                           6                     0.99869011233456584  0.026032628748383874 -0.044049537632319502       0                                 0                                   0                                 3.75e-11                         3.5000000000000003e-10       
                      -1.9323236140689454e-20                          32                                          8.2948367939609788                   3.6817656555243466e-14                 1.2783233437882445e-20            -1.483859838657881e-22     0.89062500000000011  0                     0.89062500000000011   0                    -1.9174850156823665e-20  3.0000000000000004   3.0000000000000004   0                    0                      19                            0                           7                     0.99869011233456584  0.026032628748383874 -0.044049537632319502       0                                 0                                   0                                 0                                3.5000000000000003e-10       
                      -1.9322770931602874e-20                          34                                          8.2549153303582141                   3.7628031743196405e-14                 4.6520908657891064e-25            -1.496191568994791e-22     0.88671875000000011  0                     0.88671875000000011   0                    -1.9173151774703398e-20  3.0000000000000004   3.0000000000000004   0                    0                      20                            1                           7                     0.99860165493246844  0.026364609145282655 -0.045821852327811247       0                                 0                                   0                                 1.25e-11                         3.6249999999999999e-10       
                      -1.9321313842968399e-20                          36                                          8.1354803650012002                   4.0190957321897117e-14                 1.4570886344769788e-24            -1.5360331471409894e-22     0.87500000000000011  0                     0.87500000000000011   0                    -1.9167710528254298e-20  3.0000000000000004   3.0000000000000004   0                    0                      21                            2                           7                     0.99831825667991125  0.027429163341803377 -0.051071512391463514       0                                 0                                   0                                 3.75e-11                         4.0000000000000001e-10       
                      -6.5428401574655324e-21                          37                                          8.5551660660696616                   3.8638630518393425e-14                 1.2778473685502866e-20            -1.5360331471409894e-22     0.87500000000000011  0                     0.87500000000000011   0                    -6.389236842751433e-21  1                    1                    0                    0                      22                            0                           8                     0.99831825667991125  0.027429163341803377 -0.051071512391463514       0                                 0                                   0                                 0                                4.0000000000000001e-10       
                      -6.5423543688426899e-21                          39                                          8.5155007645128453                   3.9091625595188799e-14                 4.8578862284210592e-25            -1.5376203436754807e-22     0.87109375000000011  0                     0.87109375000000011   0                    -6.3885923344751421e-21  1                    1                    0                    0                      23                            1                           8                     0.9982175522617408   0.027580633967273196 -0.052924729442313578       0                                 0                                   0                                 1.25e-11                         4.1250000000000002e-10       
                      -6.5408628392449558e-21                          41                                          8.396553815330476                    4.0492874018796876e-14                 1.4915295977342733e-24            -1.5432098285376657e-22     0.85937500000000011  0                     0.85937500000000011   0                    -6.3865418563911889e-21  1                    1                    0                    0                      24                            2                           8                     0.99789716506112314  0.028058360518866645 -0.058429242404525517       0                                 0                                   0                                 3.75e-11                         4.5e-10                   
                      -6.5408628392449558e-21                          42                                          8.396553815330476                    4.0492874018796876e-14                 0                              -1.5432098285376657e-22     0.85937500000000011  0                     0.85937500000000011   0                    -6.3865418563911889e-21  1                    1                    0                    0                      25                            0                           9                     0.99789716506112314  0.028058360518866645 -0.058429242404525517       0                                 0                                   0                                 0                                4.5e-10                   
                      -6.5387906461019033e-21                          44                                          8.2380838383804882                   4.2458075417757728e-14                 2.0721931430523552e-24            -1.5524390646079668e-22     0.84375000000000011  0                     0.84375000000000011   0                    -6.3835467396411064e-21  1                    1                    0                    0                      26                            1                           9                     0.99742917806892273  0.028748871566814199 -0.065639447898256639       0                                 0                                   0                                 5.0000000000000002e-11              5.0000000000000003e-10       
                      -6.5387906461019033e-21                          45                                          8.2380838383804882                   4.2458075417757728e-14                 0                              -1.5524390646079668e-22     0.84375000000000011  0                     0.84375000000000011   0                    -6.3835467396411064e-21  1                    1                    0                    0                      27                            0                           10                    0.99742917806892273  0.028748871566814199 -0.065639447898256639       0                                 0                                   0                                 0                                5.0000000000000003e-10       
                      -6.5366174579849638e-21                          47                                          8.0797766049583117                   4.4531320166675236e-14                 2.1731881169396983e-24            -1.5634608263254086e-22     0.82812500000000011  0                     0.82812500000000011   0                    -6.3802713753524231e-21  1                    1                    0                    0                      28                            1                           10                    0.99691740239881588  0.02949926087406431 -0.072701350759674432       0                                 0                                   0                                 5.0000000000000002e-11              5.5000000000000007e-10       
# Table End
