# ODT 1.0
# Table Start
# Title: mmArchive Data Table, Wed Jun 16 18:51:22 EDT 2010
# Columns: {Oxs_RungeKuttaEvolve:evolve:Total energy} {Oxs_RungeKuttaEvolve:evolve:Energy calc count} {Oxs_RungeKuttaEvolve:evolve:Max dm/dt} Oxs_RungeKuttaEvolve:evolve:dE/dt {Oxs_RungeKuttaEvolve:evolve:Delta E} Oxs_ScriptUZeeman::Energy Oxs_ScriptUZeeman::B Oxs_ScriptUZeeman::Bx Oxs_ScriptUZeeman::By Oxs_ScriptUZeeman::Bz Oxs_UZeeman::Energy  Oxs_UZeeman::B       Oxs_UZeeman::Bx      Oxs_UZeeman::By      Oxs_UZeeman::Bz      Oxs_TimeDriver::Iteration {Oxs_TimeDriver::Stage iteration} Oxs_TimeDriver::Stage Oxs_TimeDriver::mx   Oxs_TimeDriver::my   Oxs_TimeDriver::mz   {Oxs_TimeDriver::Max Spin Ang} {Oxs_TimeDriver::Stage Max Spin Ang} {Oxs_TimeDriver::Run Max Spin Ang} {Oxs_TimeDriver::Last time step} {Oxs_TimeDriver::Simulation time}
# Units:                       J                                            {}                                        deg/ns                                 J/s                                  J                               J                      mT                   mT                    mT                    mT                    J                 mT                   mT                   mT                   mT                        {}                            {}                          {}                   {}                   {}                   {}                        deg                               deg                                 deg                                s                                 s                
                      -1.279680119950022e-21                          1                                           100.7692059977275                    1.054649560725613e-11                 0                              -1.279680119950022e-21     10                   0                     10                    0                     0                    0                    0                    0                    0                      0                             0                           0                     0.99975009371095458  0.019995001874219091  0.0099975009371095457       0                                 0                                   0                                 0                                0                         
                      -1.1526483437606464e-21                          7                                           88.927769647465695                   9.7739729462615426e-12                 1.2703177618937571e-22            -1.1526483437606464e-21     8.8249690258459541   0                     8.8249690258459541    0                     0                    0                    0                    0                    0                      1                             1                           0                     0.99973486001606116  0.020408151369725246 -0.010663818562644383       0                                 0                                   0                                 1.25e-11                         1.25e-11                  
                      -8.298675286182687e-22                          13                                          61.117863096223928                   7.4708815250810801e-12                 3.227808151423776e-22            -8.298675286182687e-22     6.0653065971263347   0                     6.0653065971263347    0                     0                    0                    0                    0                    0                      2                             2                           0                     0.99801993313063131  0.021378441348379483 -0.059153827597579617       0                                 0                                   0                                 3.75e-11                         5.0000000000000002e-11       
                      -8.298675286182687e-22                          14                                          61.117863096223928                   7.4708815250810801e-12                 0                              -8.298675286182687e-22     6.0653065971263347   0                     6.0653065971263347    0                     0                    0                    0                    0                    0                      3                             0                           1                     0.99801993313063131  0.021378441348379483 -0.059153827597579617       0                                 0                                   0                                 0                                5.0000000000000002e-11       
                      -5.230951470123305e-22                          20                                          37.069179507947787                   4.9264343084933977e-12                 3.067723816059382e-22            -5.230951470123305e-22     3.6787944117144238   0                     3.6787944117144238    0                     0                    0                    0                    0                    0                      4                             1                           1                     0.99464061593888753  0.022217500510605167 -0.10097736278875424       0                                 0                                   0                                 5.0000000000000002e-11              1e-10                     
                      -5.230951470123305e-22                          21                                          37.069179507947787                   4.9264343084933977e-12                 0                              -5.230951470123305e-22     3.6787944117144238   0                     3.6787944117144238    0                     0                    0                    0                    0                    0                      5                             0                           2                     0.99464061593888753  0.022217500510605167 -0.10097736278875424       0                                 0                                   0                                 0                                1e-10                     
                      -3.2454050299788182e-22                          27                                          22.48333665173584                    3.1333819902402224e-12                 1.985546440144487e-22            -3.2454050299788182e-22     2.2313016014842981   0                     2.2313016014842981    0                     0                    0                    0                    0                    0                      6                             1                           2                     0.99173658349295857  0.022726400393244139 -0.12626186948908949       0                                 0                                   0                                 5.0000000000000002e-11              1.5e-10                   
                      -3.2060111174772564e-20                          28                                          22.275804166101178                   3.1354405034359949e-12                -3.1735570671774681e-20            -3.2454050299788182e-22     2.2313016014842981   0                     2.2313016014842981    0                    -3.1735570671774681e-20  5                    5                    0                    0                      7                             0                           3                     0.99173658349295857  0.022726400393244139 -0.12626186948908949       0                                 0                                   0                                 0                                1.5e-10                   
                      -3.2021971724593945e-20                          34                                          19.75851399939534                    2.9664597000963392e-12                 3.8139450178614761e-23            -3.0529752921799991e-22     1.9691167520419408   0                     1.9691167520419408    0                    -3.1716674195375946e-20  5                    5                    0                    0                      8                             1                           3                     0.99114606860549825  0.024225449756011447 -0.13054730281389954       0                                 0                                   0                                 1.25e-11                         1.6250000000000001e-10       
                      -3.1920282403084061e-20                          40                                          14.095986819354902                   2.4593041212875869e-12                 1.0168932150988544e-22            -2.503336971328369e-22     1.353352832366127    0                     1.353352832366127     0                    -3.1669948705951227e-20  5                    5                    0                    0                      9                             2                           3                     0.98968589706097565  0.028902027055738223 -0.14030858131519003       0                                 0                                   0                                 3.75e-11                         2.0000000000000001e-10       
                      -6.3590231109035282e-20                          41                                          17.768658316441648                   2.4333696739834919e-12                -3.1669948705951227e-20            -2.503336971328369e-22     1.353352832366127    0                     1.353352832366127     0                    -6.3339897411902455e-20  10                   10                   0                    0                      10                            0                           4                     0.98968589706097565  0.028902027055738223 -0.14030858131519003       0                                 0                                   0                                 0                                2.0000000000000001e-10       
                      -6.3560077886236308e-20                          47                                          16.854605634745049                   2.3870384588343627e-12                 3.0153222798975752e-23            -2.4499924134914047e-22     1.1943296826671963   0                     1.1943296826671963    0                    -6.3315078644887167e-20  10                   10                   0                    0                      11                            1                           4                     0.98929810382636185  0.032052398945082862 -0.14234432017973217       0                                 0                                   0                                 1.25e-11                         2.1250000000000002e-10       
                      -6.3474844236392541e-20                          53                                          15.312597952759269                   2.1370593019580041e-12                 8.5233649843772103e-23            -2.189021030047912e-22     0.82084998623898808  0                     0.82084998623898808   0                    -6.3255942133387751e-20  10                   10                   0                    0                      12                            2                           4                     0.98837409583418345  0.041668336685018098 -0.14622036931243326       0                                 0                                   0                                 3.75e-11                         2.5000000000000002e-10       
                      -2.189021030047912e-22                          54                                          8.2661087580057266                   2.1738788621858024e-12                 6.3255942133387751e-20            -2.189021030047912e-22     0.82084998623898808  0                     0.82084998623898808   0                     0                    0                    0                    0                    0                      13                            0                           5                     0.98837409583418345  0.041668336685018098 -0.14622036931243326       0                                 0                                   0                                 0                                2.5000000000000002e-10       
                      -1.9333744605380903e-22                          60                                          7.2948050585694659                   1.9215817617057408e-12                 2.5564656950982165e-23            -1.9333744605380903e-22     0.72439757034251429  0                     0.72439757034251429   0                     0                    0                    0                    0                    0                      14                            1                           5                     0.98812323384409739  0.04170220495303989 -0.14789658832960909       0                                 0                                   0                                 1.25e-11                         2.6250000000000002e-10       
                      -1.331322049264982e-22                          66                                          5.0136246320619113                   1.3257516098252067e-12                 6.0205241127310846e-23            -1.331322049264982e-22     0.49787068367863951  0                     0.49787068367863951   0                     0                    0                    0                    0                    0                      15                            2                           5                     0.98752288114339271  0.041781747151821348 -0.15183163314406511       0                                 0                                   0                                 3.75e-11                         3e-10                     
                      -3.1733864401515066e-20                          67                                          8.2004569080435665                   1.3164194532740635e-12                -3.1600732196588571e-20            -1.331322049264982e-22     0.49787068367863951  0                     0.49787068367863951   0                    -3.1600732196588571e-20  5                    5                    0                    0                      16                            0                           6                     0.98752288114339271  0.041781747151821348 -0.15183163314406511       0                                 0                                   0                                 0                                3e-10                     
                      -3.1718094231558844e-20                          73                                          8.0099512906079404                   1.2080007165580923e-12                 1.5770169956225713e-23            -1.2222189479067808e-22     0.43936933623407426  0                     0.43936933623407426   0                    -3.1595872336768166e-20  5                    5                    0                    0                      17                            1                           6                     0.987371010524005    0.043464960993248342 -0.15234593772943394       0                                 0                                   0                                 1.25e-11                         3.1250000000000001e-10       
                      -3.1678301398256938e-20                          79                                          7.7504042695426518                   9.2445364265742754e-13                 3.9792833301902554e-23            -9.3776537384409087e-23     0.30197383422318486  0                     0.30197383422318486   0                    -3.1584524860872529e-20  5                    5                    0                    0                      18                            2                           6                     0.98701640190226647  0.048522694040717407 -0.15311489326298247       0                                 0                                   0                                 3.75e-11                         3.5000000000000003e-10       
                      -1.9044491453907927e-20                          80                                          4.9003433988540301                   9.3244381515532488e-13                 1.2633809944349013e-20            -9.3776537384409087e-23     0.30197383422318486  0                     0.30197383422318486   0                    -1.895071491652352e-20  3.0000000000000004   3.0000000000000004   0                    0                      19                            0                           7                     0.98701640190226647  0.048522694040717407 -0.15311489326298247       0                                 0                                   0                                 0                                3.5000000000000003e-10       
                      -1.9033424404353183e-20                          86                                          4.7968176991820162                   8.3981885503480705e-13                 1.1067049554744513e-23            -8.4491794005765192e-23     0.26649097336355487  0                     0.26649097336355487   0                    -1.8948932610347418e-20  3.0000000000000004   3.0000000000000004   0                    0                      20                            1                           7                     0.98692357345559456  0.049539549676943337 -0.15338739575155874       0                                 0                                   0                                 1.25e-11                         3.6249999999999999e-10       
                      -1.9006424928538174e-20                          92                                          4.6637061981713712                   6.1162257573701686e-13                 2.6999475815008575e-23            -6.1644258854828296e-23     0.18315638888734179  0                     0.18315638888734179   0                    -1.8944780669683347e-20  3.0000000000000004   3.0000000000000004   0                    0                      21                            2                           7                     0.98670732654600746  0.052588476463092115 -0.15376314214961054       0                                 0                                   0                                 3.75e-11                         4.0000000000000001e-10       
                      -6.3765711487492769e-21                          93                                          2.037201414409858                    6.1552287250062524e-13                 1.2629853779788897e-20            -6.1644258854828296e-23     0.18315638888734179  0                     0.18315638888734179   0                    -6.3149268898944486e-21  1                    1                    0                    0                      22                            0                           8                     0.98670732654600746  0.052588476463092115 -0.15376314214961054       0                                 0                                   0                                 0                                4.0000000000000001e-10       
                      -6.3693153163496269e-21                          99                                          1.9041409431678007                   5.4675943032562512e-13                 7.2558323996505063e-24            -5.4756292686217916e-23     0.16163494588165875  0                     0.16163494588165875   0                    -6.3145590236634088e-21  1                    1                    0                    0                      23                            1                           8                     0.98664984744740747  0.052932060487003808 -0.15401388088288576       0                                 0                                   0                                 1.25e-11                         4.1250000000000002e-10       
                      -6.3520623676644709e-21                          105                                         1.6642574103026524                   3.8303195137422715e-13                 1.7252948685155498e-23            -3.8364575129073921e-23     0.11108996538242308  0                     0.11108996538242308   0                    -6.3136977925353975e-21  1                    1                    0                    0                      24                            2                           8                     0.98651528008365563  0.053960453073165313 -0.15451819202153871       0                                 0                                   0                                 3.75e-11                         4.5e-10                   
                      -6.3520623676644709e-21                          106                                         1.6642574103026524                   3.8303195137422715e-13                 0                              -3.8364575129073921e-23     0.11108996538242308  0                     0.11108996538242308   0                    -6.3136977925353975e-21  1                    1                    0                    0                      25                            0                           9                     0.98651528008365563  0.053960453073165313 -0.15451819202153871       0                                 0                                   0                                 0                                4.5e-10                   
                      -6.3368201839456949e-21                          112                                         1.5674683411028671                   2.3803916411602661e-13                 1.5242183718776293e-23            -2.3858364593441664e-23     0.067379469990854673  0                     0.067379469990854673   0                    -6.3129618193522535e-21  1                    1                    0                    0                      26                            1                           9                     0.98640028427378945  0.05532648844271465 -0.15476905007521877       0                                 0                                   0                                 5.0000000000000002e-11              5.0000000000000003e-10       
                      -6.3368201839456949e-21                          113                                         1.5674683411028671                   2.3803916411602661e-13                 0                              -2.3858364593441664e-23     0.067379469990854673  0                     0.067379469990854673   0                    -6.3129618193522535e-21  1                    1                    0                    0                      27                            0                           10                    0.98640028427378945  0.05532648844271465 -0.15476905007521877       0                                 0                                   0                                 0                                5.0000000000000003e-10       
                      -6.3273538521825472e-21                          119                                         1.5693147701000238                   1.4772096176402784e-13                 9.4663317631473533e-24            -1.4826672710327155e-23     0.040867714384640631  0                     0.040867714384640631   0                    -6.3125271794722201e-21  1                    1                    0                    0                      28                            1                           10                    0.9863323717925343   0.056686987414674067 -0.15470952721782355       0                                 0                                   0                                 5.0000000000000002e-11              5.5000000000000007e-10       
# Table End
