# ODT 1.0
# Table Start
# Title: mmArchive Data Table, Wed Jun 16 18:51:14 EDT 2010
# Columns: {Oxs_RungeKuttaEvolve:evolve:Total energy} {Oxs_RungeKuttaEvolve:evolve:Energy calc count} {Oxs_RungeKuttaEvolve:evolve:Max dm/dt} Oxs_RungeKuttaEvolve:evolve:dE/dt {Oxs_RungeKuttaEvolve:evolve:Delta E} Oxs_ScriptUZeeman::Energy Oxs_ScriptUZeeman::B Oxs_ScriptUZeeman::Bx Oxs_ScriptUZeeman::By Oxs_ScriptUZeeman::Bz Oxs_UZeeman::Energy  Oxs_UZeeman::B       Oxs_UZeeman::Bx      Oxs_UZeeman::By      Oxs_UZeeman::Bz      Oxs_TimeDriver::Iteration {Oxs_TimeDriver::Stage iteration} Oxs_TimeDriver::Stage Oxs_TimeDriver::mx   Oxs_TimeDriver::my   Oxs_TimeDriver::mz   {Oxs_TimeDriver::Max Spin Ang} {Oxs_TimeDriver::Stage Max Spin Ang} {Oxs_TimeDriver::Run Max Spin Ang} {Oxs_TimeDriver::Last time step} {Oxs_TimeDriver::Simulation time}
# Units:                       J                                            {}                                        deg/ns                                 J/s                                  J                               J                      mT                   mT                    mT                    mT                    J                 mT                   mT                   mT                   mT                        {}                            {}                          {}                   {}                   {}                   {}                        deg                               deg                                 deg                                s                                 s                
                      -1.279680119950022e-21                          1                                           100.7692059977275                    1.054649560725613e-11                 0                              -1.279680119950022e-21     10                   0                     10                    0                     0                    0                    0                    0                    0                      0                             0                           0                     0.99975009371095458  0.019995001874219091  0.0099975009371095457       0                                 0                                   0                                 0                                0                         
                      -1.1526483438302105e-21                          12                                          88.92776964746345                    9.7739729469572709e-12                 1.270317761198117e-22            -1.1526483438302105e-21     8.8249690258459541   0                     8.8249690258459541    0                     0                    0                    0                    0                    0                      1                             1                           0                     0.9997348600158712   0.020408151370956907 -0.010663818578091289       0                                 0                                   0                                 1.25e-11                         1.25e-11                  
                      -8.2986753662336727e-22                          23                                          61.117863095954355                   7.4708816051393679e-12                 3.2278080720684309e-22            -8.2986753662336727e-22     6.0653065971263347   0                     6.0653065971263347    0                     0                    0                    0                    0                    0                      2                             2                           0                     0.99801993259460087  0.021378441554600988 -0.059153836566741516       0                                 0                                   0                                 3.75e-11                         5.0000000000000002e-11       
                      -8.2986753662336727e-22                          24                                          61.117863095954355                   7.4708816051393679e-12                 0                              -8.2986753662336727e-22     6.0653065971263347   0                     6.0653065971263347    0                     0                    0                    0                    0                    0                      3                             0                           1                     0.99801993259460087  0.021378441554600988 -0.059153836566741516       0                                 0                                   0                                 0                                5.0000000000000002e-11       
                      -7.4093938456166302e-22                          35                                          53.936034117069774                   6.7647143669336653e-12                 8.8928152061704262e-23            -7.4093938456166302e-22     5.3526142851899028   0                     5.3526142851899028    0                     0                    0                    0                    0                    0                      4                             1                           1                     0.99719471177994079  0.021629015779838209 -0.071658164046509251       0                                 0                                   0                                 1.25e-11                         6.2500000000000004e-11       
                      -5.230951497682566e-22                          46                                          37.069179507851338                   4.9264343360542431e-12                 2.1784423479340647e-22            -5.230951497682566e-22     3.6787944117144238   0                     3.6787944117144238    0                     0                    0                    0                    0                    0                      5                             2                           1                     0.99464061416208205  0.022217500627658038 -0.10097738026477136       0                                 0                                   0                                 3.75e-11                         1e-10                     
                      -5.230951497682566e-22                          47                                          37.069179507851338                   4.9264343360542431e-12                 0                              -5.230951497682566e-22     3.6787944117144238   0                     3.6787944117144238    0                     0                    0                    0                    0                    0                      6                             0                           2                     0.99464061416208205  0.022217500627658038 -0.10097738026477136       0                                 0                                   0                                 0                                1e-10                     
                      -4.6478756355067748e-22                          58                                          32.713325206749353                   4.4107190393819945e-12                 5.8307586217579095e-23            -4.6478756355067748e-22     3.2465246735834978   0                     3.2465246735834978    0                     0                    0                    0                    0                    0                      7                             1                           2                     0.99384082131607987  0.022369476319005575 -0.10853583931123005       0                                 0                                   0                                 1.25e-11                         1.125e-10                 
                      -3.2454050473517079e-22                          69                                          22.483336651673646                   3.1333820076137319e-12                 1.4024705881550668e-22            -3.2454050473517079e-22     2.2313016014842981   0                     2.2313016014842981    0                     0                    0                    0                    0                    0                      8                             2                           2                     0.99173658055443437  0.022726400514900217 -0.12626189254812525       0                                 0                                   0                                 3.75e-11                         1.5e-10                   
                      -3.2060111082477072e-20                          70                                          22.275804495545096                   3.1354405175562842e-12                -3.1735570577741904e-20            -3.2454050473517079e-22     2.2313016014842981   0                     2.2313016014842981    0                    -3.1735570577741904e-20  5                    5                    0                    0                      9                             0                           3                     0.99173658055443437  0.022726400514900217 -0.12626189254812525       0                                 0                                   0                                 0                                1.5e-10                   
                      -3.2021971631932147e-20                          81                                          19.758514371841851                   2.9664597451200497e-12                 3.8139450544926748e-23            -3.0529753404653348e-22     1.9691167520419408   0                     1.9691167520419408    0                    -3.1716674097885613e-20  5                    5                    0                    0                      10                            1                           3                     0.99114606555892526  0.024225450139157018 -0.13054732587310164       0                                 0                                   0                                 1.25e-11                         1.6250000000000001e-10       
                      -3.1920282300747287e-20                          92                                          14.095987394096134                   2.4593043502038567e-12                 1.0168933118486176e-22            -2.5033372038353762e-22     1.353352832366127    0                     1.353352832366127     0                    -3.1669948580363749e-20  5                    5                    0                    0                      11                            2                           3                     0.98968589313636701  0.028902029740124662 -0.14030860844500082       0                                 0                                   0                                 3.75e-11                         2.0000000000000001e-10       
                      -6.359023088111103e-20                          93                                          17.768660339440679                   2.4333698905586511e-12                -3.1669948580363749e-20            -2.5033372038353762e-22     1.353352832366127    0                     1.353352832366127     0                    -6.3339897160727498e-20  10                   10                   0                    0                      12                            0                           4                     0.98968589313636701  0.028902029740124662 -0.14030860844500082       0                                 0                                   0                                 0                                2.0000000000000001e-10       
                      -6.3560077655421573e-20                          104                                         16.854607793476983                   2.3870386939121441e-12                 3.0153225689455799e-23            -2.4499926646954277e-22     1.1943296826671963   0                     1.1943296826671963    0                    -6.3315078388952034e-20  10                   10                   0                    0                      13                            1                           4                     0.98929809982737538  0.032052402231497759 -0.14234434723280953       0                                 0                                   0                                 1.25e-11                         2.1250000000000002e-10       
                      -6.3474843978212062e-20                          115                                         15.312600607031833                   2.1370596236563178e-12                 8.52336772095167e-23            -2.1890213697602296e-22     0.82084998623898808  0                     0.82084998623898808   0                    -6.3255941841236035e-20  10                   10                   0                    0                      14                            2                           4                     0.98837409126931297  0.041668343151491934 -0.14622039832584696       0                                 0                                   0                                 3.75e-11                         2.5000000000000002e-10       
                      -2.1890213697602296e-22                          116                                         8.2661087557745727                   2.1738792019062942e-12                 6.3255941841236035e-20            -2.1890213697602296e-22     0.82084998623898808  0                     0.82084998623898808   0                     0                    0                    0                    0                    0                      15                            0                           5                     0.98837409126931297  0.041668343151491934 -0.14622039832584696       0                                 0                                   0                                 0                                2.5000000000000002e-10       
                      -1.9333747603402845e-22                          127                                         7.2948050565988289                   1.9215820615143064e-12                 2.5564660941994512e-23            -1.9333747603402845e-22     0.72439757034251429  0                     0.72439757034251429   0                     0                    0                    0                    0                    0                      16                            1                           5                     0.98812322922849138  0.041702211419667436 -0.14789661734389864       0                                 0                                   0                                 1.25e-11                         2.6250000000000002e-10       
                      -1.3313222562938502e-22                          138                                         5.0136246306984846                   1.3257518168571045e-12                 6.0205250404643434e-23            -1.3313222562938502e-22     0.49787068367863951  0                     0.49787068367863951   0                     0                    0                    0                    0                    0                      17                            2                           5                     0.98752287616123746  0.041781753649143182 -0.15183166376036203       0                                 0                                   0                                 3.75e-11                         3e-10                     
                      -3.173386426278899e-20                          139                                         8.2004582394553154                   1.3164196554638127e-12                -3.1600732037159602e-20            -1.3313222562938502e-22     0.49787068367863951  0                     0.49787068367863951   0                    -3.1600732037159602e-20  5                    5                    0                    0                      18                            0                           6                     0.98752287616123746  0.041781753649143182 -0.15183166376036203       0                                 0                                   0                                 0                                3e-10                     
                      -3.1718094090377509e-20                          150                                         8.0099526771205909                   1.2080009038013927e-12                 1.5770172411475814e-23            -1.2222191400723984e-22     0.43936933623407426  0                     0.43936933623407426   0                    -3.1595872176370269e-20  5                    5                    0                    0                      19                            1                           6                     0.98737100551157087  0.043464967827106613 -0.15234596826584587       0                                 0                                   0                                 1.25e-11                         3.1250000000000001e-10       
                      -3.1678301246265075e-20                          161                                         7.7504058102750628                   9.2445379553171829e-13                 3.9792844112435057e-23            -9.3776553201096178e-23     0.30197383422318486  0                     0.30197383422318486   0                    -3.1584524693063978e-20  5                    5                    0                    0                      20                            2                           6                     0.98701639665824925  0.048522702224728993 -0.15311492447366412       0                                 0                                   0                                 3.75e-11                         3.5000000000000003e-10       
                      -1.9044491369039486e-20                          162                                         4.9003442168637363                   9.3244397154555006e-13                 1.2633809877225592e-20            -9.3776553201096178e-23     0.30197383422318486  0                     0.30197383422318486   0                    -1.8950714815838388e-20  3.0000000000000004   3.0000000000000004   0                    0                      21                            0                           7                     0.98701639665824925  0.048522702224728993 -0.15311492447366412       0                                 0                                   0                                 0                                3.5000000000000003e-10       
                      -1.9033424317617059e-20                          173                                         4.7968185527400946                   8.3981899630375028e-13                 1.1067051422424194e-23            -8.449180831412839e-23     0.26649097336355487  0                     0.26649097336355487   0                    -1.8948932509302931e-20  3.0000000000000004   3.0000000000000004   0                    0                      22                            1                           7                     0.98692356819286087  0.04953955806627721 -0.1533874269034767        0                                 0                                   0                                 1.25e-11                         3.6249999999999999e-10       
                      -1.9006424835507473e-20                          184                                         4.6637071384680393                   6.1162268092909381e-13                 2.6999482109587561e-23            -6.1644269568398243e-23     0.18315638888734179  0                     0.18315638888734179   0                    -1.8944780565939074e-20  3.0000000000000004   3.0000000000000004   0                    0                      23                            2                           7                     0.98670732114266002  0.052588485602796796 -0.15376317369734568       0                                 0                                   0                                 3.75e-11                         4.0000000000000001e-10       
                      -6.3765711248814227e-21                          185                                         2.0372015996930339                   6.1552297946902864e-13                 1.2629853710626049e-20            -6.1644269568398243e-23     0.18315638888734179  0                     0.18315638888734179   0                    -6.3149268553130245e-21  1                    1                    0                    0                      24                            0                           8                     0.98670732114266002  0.052588485602796796 -0.15376317369734568       0                                 0                                   0                                 0                                4.0000000000000001e-10       
                      -6.3693152912185688e-21                          196                                         1.9041411516523137                   5.4675952541157003e-13                 7.2558336628545121e-24            -5.4756302212407384e-23     0.16163494588165875  0                     0.16163494588165875   0                    -6.314558989006161e-21  1                    1                    0                    0                      25                            1                           8                     0.98664984203221251  0.052932069695823702 -0.154013912408998         0                                 0                                   0                                 1.25e-11                         4.1250000000000002e-10       
                      -6.35206233918021e-21                          207                                         1.6642576799328728                   3.8303201835466678e-13                 1.725295203835842e-23            -3.8364581847006515e-23     0.11108996538242308  0                     0.11108996538242308   0                    -6.3136977573332033e-21  1                    1                    0                    0                      26                            2                           8                     0.9865152745833129   0.05396046252205626 -0.1545182238385378        0                                 0                                   0                                 3.75e-11                         4.5e-10                   
                      -6.35206233918021e-21                          208                                         1.6642576799328728                   3.8303201835466678e-13                 0                              -3.8364581847006515e-23     0.11108996538242308  0                     0.11108996538242308   0                    -6.3136977573332033e-21  1                    1                    0                    0                      27                            0                           9                     0.9865152745833129   0.05396046252205626 -0.1545182238385378        0                                 0                                   0                                 0                                4.5e-10                   
                      -6.3475478627395061e-21                          219                                         1.6231558424982675                   3.4012850047494927e-13                 4.5144764407041298e-24            -3.4071235717043323e-23     0.098036550358218288  0                     0.098036550358218288   0                    -6.3134766270224628e-21  1                    1                    0                    0                      28                            1                           9                     0.98648072297225964  0.054302508210824101 -0.15461895357989361       0                                 0                                   0                                 1.25e-11                         4.6250000000000001e-10       
                      -6.3368201526143153e-21                          230                                         1.5674686552415911                   2.3803920590813233e-13                 1.0727710125191026e-23            -2.3858368794476325e-23     0.067379469990854673  0                     0.067379469990854673   0                    -6.3129617838198383e-21  1                    1                    0                    0                      29                            2                           9                     0.98640027872184965  0.055326498184727547 -0.15476908197722397       0                                 0                                   0                                 3.75e-11                         5.0000000000000003e-10       
                      -6.3368201526143153e-21                          231                                         1.5674686552415911                   2.3803920590813233e-13                 0                              -2.3858368794476325e-23     0.067379469990854673  0                     0.067379469990854673   0                    -6.3129617838198383e-21  1                    1                    0                    0                      30                            0                           10                    0.98640027872184965  0.055326498184727547 -0.15476908197722397       0                                 0                                   0                                 0                                5.0000000000000003e-10       
                      -6.3340150519914313e-21                          242                                         1.5630394055870711                   2.1130426281236436e-13                 2.8051006228838198e-24            -2.1184567207362824e-23     0.059462173564720951  0                     0.059462173564720951   0                    -6.3128304847840683e-21  1                    1                    0                    0                      31                            1                           10                    0.98637976324751053  0.055667131349438667 -0.15477768942295822       0                                 0                                   0                                 1.25e-11                         5.1250000000000004e-10       
                      -6.327353819077778e-21                          253                                         1.5693151011335429                   1.4772098776720091e-13                 6.661232913652932e-24            -1.4826675333669372e-23     0.040867714384640631  0                     0.040867714384640631   0                    -6.3125271437441086e-21  1                    1                    0                    0                      32                            2                           10                    0.98633236621001685  0.056686997444528375 -0.15470955913347184       0                                 0                                   0                                 3.75e-11                         5.5000000000000007e-10       
# Table End
