# ODT 1.0
# Table Start
# Title: mmArchive Data Table, Wed Jun 16 18:53:03 EDT 2010
# Columns: {Oxs_RungeKuttaEvolve:evolver:Total energy} {Oxs_RungeKuttaEvolve:evolver:Energy calc count} {Oxs_RungeKuttaEvolve:evolver:Max dm/dt} Oxs_RungeKuttaEvolve:evolver:dE/dt {Oxs_RungeKuttaEvolve:evolver:Delta E} Oxs_FixedZeeman::Energy Oxs_UniformExchange::Energy {Oxs_UniformExchange::Max Spin Ang} {Oxs_UniformExchange::Stage Max Spin Ang} {Oxs_UniformExchange::Run Max Spin Ang} Oxs_Demag::Energy    Oxs_UniaxialAnisotropy::Energy Oxs_TimeDriver::Iteration {Oxs_TimeDriver::Stage iteration} Oxs_TimeDriver::Stage Oxs_TimeDriver::mx   Oxs_TimeDriver::my   Oxs_TimeDriver::mz   {Oxs_TimeDriver::Last time step} {Oxs_TimeDriver::Simulation time}
# Units:                        J                                             {}                                         deg/ns                                 J/s                                   J                               J                         J                              deg                                    deg                                      deg                           J                          J                           {}                            {}                          {}                   {}                   {}                   {}                          s                                 s                
                      -1.3325340423212703e-18                            355                                          120517.72743814391                   -6.2484862815013894e-06                 -1.1314638227802704e-20           -2.6143130181787494e-18       9.8463014413426333e-19             5.5656574343621115                     8.2833982430261539                       8.2833982430261539             2.9625939610122549e-19       8.89435621990202e-22         59                            59                          0                     0.99728127219343132  0.048439386229092031  0.050488973760844574        1.7989177401631329e-15              2.0000000000000001e-13       
# Table End
