# ODT 1.0
# Table Start
# Title: mmArchive Data Table, Wed Jun 16 18:55:50 EDT 2010
# Columns: {Oxs_SpinXferEvolve:evolver:Total energy} {Oxs_SpinXferEvolve:evolver:Energy calc count} {Oxs_SpinXferEvolve:evolver:Max dm/dt} Oxs_SpinXferEvolve:evolver:dE/dt {Oxs_SpinXferEvolve:evolver:Delta E} {Oxs_SpinXferEvolve:evolver:average J} Oxs_FixedZeeman::Energy Oxs_UniformExchange::Energy {Oxs_UniformExchange::Max Spin Ang} {Oxs_UniformExchange::Stage Max Spin Ang} {Oxs_UniformExchange::Run Max Spin Ang} Oxs_Demag::Energy    Oxs_UniaxialAnisotropy::Energy Oxs_TimeDriver::Iteration {Oxs_TimeDriver::Stage iteration} Oxs_TimeDriver::Stage Oxs_TimeDriver::mx   Oxs_TimeDriver::my   Oxs_TimeDriver::mz   {Oxs_TimeDriver::Last time step} {Oxs_TimeDriver::Simulation time}
# Units:                       J                                           {}                                       deg/ns                               J/s                                 J                                   A/m^2                             J                         J                              deg                                    deg                                      deg                           J                          J                           {}                            {}                          {}                   {}                   {}                   {}                          s                                 s                
                     -2.3578866225965413e-18                          139                                        3135.9687204791558                 -4.3257567657809418e-10               -2.0673794220248506e-23                   0                             -2.6214384558739423e-18       9.9759743725090764e-23             0.20269979104262792                    0.20269979104262792                      0.20269979104262792            2.6345188052060859e-19       1.9301306733706442e-25         23                            23                          0                     0.99999941096265466 -1.147560236940126e-22  1.0564364324745085e-21        4.7470320788094408e-14              2.0000000000000001e-13       
# Table End
