# ODT 1.0
# Table Start
# Title: mmArchive Data Table, Wed Jun 16 18:54:51 EDT 2010
# Columns: {Oxs_RungeKuttaEvolve:evolver:Total energy} {Oxs_RungeKuttaEvolve:evolver:Energy calc count} {Oxs_RungeKuttaEvolve:evolver:Max dm/dt} Oxs_RungeKuttaEvolve:evolver:dE/dt {Oxs_RungeKuttaEvolve:evolver:Delta E} Oxs_FixedZeeman::Energy Oxs_UniformExchange::Energy {Oxs_UniformExchange::Max Spin Ang} {Oxs_UniformExchange::Stage Max Spin Ang} {Oxs_UniformExchange::Run Max Spin Ang} Oxs_Demag::Energy    Oxs_UniaxialAnisotropy::Energy Oxs_TimeDriver::Iteration {Oxs_TimeDriver::Stage iteration} Oxs_TimeDriver::Stage Oxs_TimeDriver::mx   Oxs_TimeDriver::my   Oxs_TimeDriver::mz   {Oxs_TimeDriver::Last time step} {Oxs_TimeDriver::Simulation time}
# Units:                        J                                             {}                                         deg/ns                                 J/s                                   J                               J                         J                              deg                                    deg                                      deg                           J                          J                           {}                            {}                          {}                   {}                   {}                   {}                          s                                 s                
                      -2.3578866324388653e-18                            125                                          3136.1109197945993                   -4.3254172522739471e-10                 -6.7929917246493997e-25           -2.6214384558634059e-18       9.9753305332753083e-23             0.20255820480183473                    0.20255820480183473                      0.20255820480183473            2.6345187710482335e-19       1.9301438442255975e-25         62                            62                          0                     0.99999941095863543 -1.1755123241995179e-22  1.0522351490561271e-21        1.5701227387819158e-15              2.0000000000000001e-13       
# Table End
