# ODT 1.0
# Table Start
# Title: mmArchive Data Table, Wed Jun 16 18:51:50 EDT 2010
# Columns: {Oxs_RungeKuttaEvolve:evolver:Total energy} {Oxs_RungeKuttaEvolve:evolver:Energy calc count} {Oxs_RungeKuttaEvolve:evolver:Max dm/dt} Oxs_RungeKuttaEvolve:evolver:dE/dt {Oxs_RungeKuttaEvolve:evolver:Delta E} Oxs_FixedZeeman::Energy Oxs_UniformExchange::Energy {Oxs_UniformExchange::Max Spin Ang} {Oxs_UniformExchange::Stage Max Spin Ang} {Oxs_UniformExchange::Run Max Spin Ang} Oxs_Demag::Energy    Oxs_UniaxialAnisotropy::Energy Oxs_TimeDriver::Iteration {Oxs_TimeDriver::Stage iteration} Oxs_TimeDriver::Stage Oxs_TimeDriver::mx   Oxs_TimeDriver::my   Oxs_TimeDriver::mz   {Oxs_TimeDriver::Last time step} {Oxs_TimeDriver::Simulation time}
# Units:                        J                                             {}                                         deg/ns                                 J/s                                   J                               J                         J                              deg                                    deg                                      deg                           J                          J                           {}                            {}                          {}                   {}                   {}                   {}                          s                                 s                
                      -2.3578866244387815e-18                            139                                          3136.6660517903574                   -4.3256843757058338e-10                 -2.237150497973911e-23           -2.6214384558776463e-18       9.9756176841150704e-23             0.20263282400540569                    0.20263282400540569                      0.20263282400540569            2.6345188224941922e-19       1.9301260436367743e-25         23                            23                          0                     0.99999941096406764 -1.122318655111948e-22  1.0637547971387856e-21        5.1341175288161393e-14              2.0000000000000001e-13       
# Table End
