# ODT 1.0
# Table Start
# Title: mmArchive Data Table, Wed Jun 16 18:51:41 EDT 2010
# Columns: {Oxs_EulerEvolve:evolver:Total energy} {Oxs_EulerEvolve:evolver:Energy calc count} {Oxs_EulerEvolve:evolver:Max dm/dt} Oxs_EulerEvolve:evolver:dE/dt {Oxs_EulerEvolve:evolver:Delta E} Oxs_FixedZeeman::Energy Oxs_UniformExchange::Energy {Oxs_UniformExchange::Max Spin Ang} {Oxs_UniformExchange::Stage Max Spin Ang} {Oxs_UniformExchange::Run Max Spin Ang} Oxs_Demag::Energy    Oxs_UniaxialAnisotropy::Energy Oxs_TimeDriver::Iteration {Oxs_TimeDriver::Stage iteration} Oxs_TimeDriver::Stage Oxs_TimeDriver::mx   Oxs_TimeDriver::my   Oxs_TimeDriver::mz   {Oxs_TimeDriver::Last time step} {Oxs_TimeDriver::Simulation time}
# Units:                     J                                        {}                                    deg/ns                             J/s                              J                            J                         J                              deg                                    deg                                      deg                           J                          J                           {}                            {}                          {}                   {}                   {}                   {}                          s                                 s                
                     1.6434728982783259e-18                      156                                     199018.13505764256              -3.0051757060627428e-05            -1.7283215760168824e-23         -2.6127655321173439e-18       3.9540686567562264e-18             7.7889731686379182                     7.7907855255214651                       7.7907855255214651             3.0108797372480414e-19       1.081799914638945e-21         155                           155                         0                     0.99669095310872768  0.049761770947767577  0.049842090782055079        5.751825460618471e-19              9.9999999999999998e-17       
# Table End
