# ODT 1.0
# Table Start
# Title: mmArchive Data Table, Wed Jun 16 18:52:06 EDT 2010
# Columns: {Oxs_RungeKuttaEvolve:evolver:Total energy} {Oxs_RungeKuttaEvolve:evolver:Energy calc count} {Oxs_RungeKuttaEvolve:evolver:Max dm/dt} Oxs_RungeKuttaEvolve:evolver:dE/dt {Oxs_RungeKuttaEvolve:evolver:Delta E} Oxs_FixedZeeman::Energy Oxs_UniformExchange::Energy {Oxs_UniformExchange::Max Spin Ang} {Oxs_UniformExchange::Stage Max Spin Ang} {Oxs_UniformExchange::Run Max Spin Ang} Oxs_Demag::Energy    Oxs_UniaxialAnisotropy::Energy Oxs_TimeDriver::Iteration {Oxs_TimeDriver::Stage iteration} Oxs_TimeDriver::Stage Oxs_TimeDriver::mx   Oxs_TimeDriver::my   Oxs_TimeDriver::mz   {Oxs_TimeDriver::Last time step} {Oxs_TimeDriver::Simulation time}
# Units:                        J                                             {}                                         deg/ns                                 J/s                                   J                               J                         J                              deg                                    deg                                      deg                           J                          J                           {}                            {}                          {}                   {}                   {}                   {}                          s                                 s                
                      -1.3324884480805299e-18                            265                                          120521.18037154012                   -6.2489505167350606e-06                 -6.1828940088517997e-20           -2.6143130019908718e-18       9.8467566961054777e-19             5.5657099921989621                     8.2742360329088314                       8.2742360329088314             2.9625944666531656e-19       8.8943763447749837e-22         44                            44                          0                     0.99728126601824607  0.048439385934952499  0.050488973447076521        9.5531387335018426e-15              2.0000000000000001e-13       
# Table End
