# ODT 1.0
# Table Start
# Title: mmArchive Data Table, Wed Jun 16 18:56:47 EDT 2010
# Columns: {Oxs_SpinXferEvolve:evolver:Total energy} {Oxs_SpinXferEvolve:evolver:Energy calc count} {Oxs_SpinXferEvolve:evolver:Max dm/dt} Oxs_SpinXferEvolve:evolver:dE/dt {Oxs_SpinXferEvolve:evolver:Delta E} {Oxs_SpinXferEvolve:evolver:average J} Oxs_FixedZeeman::Energy Oxs_UniformExchange::Energy {Oxs_UniformExchange::Max Spin Ang} {Oxs_UniformExchange::Stage Max Spin Ang} {Oxs_UniformExchange::Run Max Spin Ang} Oxs_Demag::Energy    Oxs_UniaxialAnisotropy::Energy Oxs_TimeDriver::Iteration {Oxs_TimeDriver::Stage iteration} Oxs_TimeDriver::Stage Oxs_TimeDriver::mx   Oxs_TimeDriver::my   Oxs_TimeDriver::mz   {Oxs_TimeDriver::Last time step} {Oxs_TimeDriver::Simulation time}
# Units:                       J                                           {}                                       deg/ns                               J/s                                 J                                   A/m^2                             J                         J                              deg                                    deg                                      deg                           J                          J                           {}                            {}                          {}                   {}                   {}                   {}                          s                                 s                
                     -1.3325342251273074e-18                          349                                        120517.71356011285                 -6.2484844196391328e-06               -2.1026150777780118e-20                   0                             -2.6143130182436332e-18       9.8462996160398437e-19             5.5656571966270958                     8.2840489071754693                       8.2840489071754693             2.9625939589841755e-19       8.8943561392396409e-22         58                            58                          0                     0.99728127221818264  0.048439386230183026  0.050488973762127992        3.324321169163094e-15              2.0000000000000001e-13       
# Table End
