# ODT 1.0
# Table Start
# Title: mmArchive Data Table, Wed Jun 16 18:56:10 EDT 2010
# Columns: {Oxs_SpinXferEvolve:evolver:Total energy} {Oxs_SpinXferEvolve:evolver:Energy calc count} {Oxs_SpinXferEvolve:evolver:Max dm/dt} Oxs_SpinXferEvolve:evolver:dE/dt {Oxs_SpinXferEvolve:evolver:Delta E} {Oxs_SpinXferEvolve:evolver:average J} Oxs_FixedZeeman::Energy Oxs_UniformExchange::Energy {Oxs_UniformExchange::Max Spin Ang} {Oxs_UniformExchange::Stage Max Spin Ang} {Oxs_UniformExchange::Run Max Spin Ang} Oxs_Demag::Energy    Oxs_UniaxialAnisotropy::Energy Oxs_TimeDriver::Iteration {Oxs_TimeDriver::Stage iteration} Oxs_TimeDriver::Stage Oxs_TimeDriver::mx   Oxs_TimeDriver::my   Oxs_TimeDriver::mz   {Oxs_TimeDriver::Last time step} {Oxs_TimeDriver::Simulation time}
# Units:                       J                                           {}                                       deg/ns                               J/s                                 J                                   A/m^2                             J                         J                              deg                                    deg                                      deg                           J                          J                           {}                            {}                          {}                   {}                   {}                   {}                          s                                 s                
                     -1.3324937493287237e-18                          283                                        120520.78069896591                 -6.2488964066375713e-06               -1.5465312162408038e-20                   0                             -2.6143130038682579e-18       9.8467037633461308e-19             5.5657047566544433                     8.2810323113715203                       8.2810323113715203             2.9625944080384637e-19       8.8943740107499163e-22         47                            47                          0                     0.99728126673441209  0.048439385969448495  0.05048897348342863        2.4527933571138064e-15              2.0000000000000001e-13       
# Table End
