# ODT 1.0
# Table Start
# Title: mmArchive Data Table, Wed Jun 16 18:55:09 EDT 2010
# Columns: {Oxs_RungeKuttaEvolve:evolver:Total energy} {Oxs_RungeKuttaEvolve:evolver:Energy calc count} {Oxs_RungeKuttaEvolve:evolver:Max dm/dt} Oxs_RungeKuttaEvolve:evolver:dE/dt {Oxs_RungeKuttaEvolve:evolver:Delta E} Oxs_FixedZeeman::Energy Oxs_UniformExchange::Energy {Oxs_UniformExchange::Max Spin Ang} {Oxs_UniformExchange::Stage Max Spin Ang} {Oxs_UniformExchange::Run Max Spin Ang} Oxs_Demag::Energy    Oxs_UniaxialAnisotropy::Energy Oxs_TimeDriver::Iteration {Oxs_TimeDriver::Stage iteration} Oxs_TimeDriver::Stage Oxs_TimeDriver::mx   Oxs_TimeDriver::my   Oxs_TimeDriver::mz   {Oxs_TimeDriver::Last time step} {Oxs_TimeDriver::Simulation time}
# Units:                        J                                             {}                                         deg/ns                                 J/s                                   J                               J                         J                              deg                                    deg                                      deg                           J                          J                           {}                            {}                          {}                   {}                   {}                   {}                          s                                 s                
                       1.3579818382214517e-18                            277                                          195853.923114479                     -2.7658228448732985e-05                 -1.1745410092754382e-21           -2.6129013739174306e-18       3.6691652175360065e-18             7.6143901532359397                     7.7907855255214651                       7.7907855255214651             3.0065307377198283e-19       1.0649208308932146e-21         138                           138                         0                     0.99674277264306255  0.049697752740578326  0.049875742168025421        4.245863584811071e-17              1e-14                     
# Table End
