# ODT 1.0
# Table Start
# Title: mmArchive Data Table, Wed Jun 16 18:57:06 EDT 2010
# Columns: {Oxs_SpinXferEvolve:evolver:Total energy} {Oxs_SpinXferEvolve:evolver:Energy calc count} {Oxs_SpinXferEvolve:evolver:Max dm/dt} Oxs_SpinXferEvolve:evolver:dE/dt {Oxs_SpinXferEvolve:evolver:Delta E} {Oxs_SpinXferEvolve:evolver:average J} Oxs_FixedZeeman::Energy Oxs_UniformExchange::Energy {Oxs_UniformExchange::Max Spin Ang} {Oxs_UniformExchange::Stage Max Spin Ang} {Oxs_UniformExchange::Run Max Spin Ang} Oxs_Demag::Energy    Oxs_UniaxialAnisotropy::Energy Oxs_TimeDriver::Iteration {Oxs_TimeDriver::Stage iteration} Oxs_TimeDriver::Stage Oxs_TimeDriver::mx   Oxs_TimeDriver::my   Oxs_TimeDriver::mz   {Oxs_TimeDriver::Last time step} {Oxs_TimeDriver::Simulation time}
# Units:                       J                                           {}                                       deg/ns                               J/s                                 J                                   A/m^2                             J                         J                              deg                                    deg                                      deg                           J                          J                           {}                            {}                          {}                   {}                   {}                   {}                          s                                 s                
                     -2.3578866287717313e-18                          287                                        3136.3733309658251                 -4.325484990290873e-10               -8.970978278603795e-24                   0                             -2.621438455882879e-18       9.9751605447582558e-23             0.20256069913473654                    0.20256069913473654                      0.20256069913473654            2.6345188249374987e-19       1.9301195024363413e-25         26                            26                          0                     0.99999941096606393 -1.1997374664909909e-22  1.0557418654577599e-21        2.0678708284844911e-14              2.0000000000000001e-13       
# Table End
