# ODT 1.0
# Table Start
# Title: mmArchive Data Table, Wed Jun 16 18:53:21 EDT 2010
# Columns: {Oxs_RungeKuttaEvolve:evolver:Total energy} {Oxs_RungeKuttaEvolve:evolver:Energy calc count} {Oxs_RungeKuttaEvolve:evolver:Max dm/dt} Oxs_RungeKuttaEvolve:evolver:dE/dt {Oxs_RungeKuttaEvolve:evolver:Delta E} Oxs_FixedZeeman::Energy Oxs_UniformExchange::Energy {Oxs_UniformExchange::Max Spin Ang} {Oxs_UniformExchange::Stage Max Spin Ang} {Oxs_UniformExchange::Run Max Spin Ang} Oxs_Demag::Energy    Oxs_UniaxialAnisotropy::Energy Oxs_TimeDriver::Iteration {Oxs_TimeDriver::Stage iteration} Oxs_TimeDriver::Stage Oxs_TimeDriver::mx   Oxs_TimeDriver::my   Oxs_TimeDriver::mz   {Oxs_TimeDriver::Last time step} {Oxs_TimeDriver::Simulation time}
# Units:                        J                                             {}                                         deg/ns                                 J/s                                   J                               J                         J                              deg                                    deg                                      deg                           J                          J                           {}                            {}                          {}                   {}                   {}                   {}                          s                                 s                
                      -2.3578866287717313e-18                            287                                          3136.3733309658251                   -4.325484990290873e-10                 -8.970978278603798e-24           -2.621438455882879e-18       9.9751605447582558e-23             0.20256069913473654                    0.20256069913473654                      0.20256069913473654            2.6345188249374987e-19       1.9301195024363413e-25         26                            26                          0                     0.99999941096606393 -1.1943164556285634e-22  1.0561145599545518e-21        2.0678708284844915e-14              2.0000000000000001e-13       
# Table End
