# ODT 1.0
# Table Start
# Title: mmArchive Data Table, Wed Jun 16 18:52:33 EDT 2010
# Columns: {Oxs_RungeKuttaEvolve:evolver:Total energy} {Oxs_RungeKuttaEvolve:evolver:Energy calc count} {Oxs_RungeKuttaEvolve:evolver:Max dm/dt} Oxs_RungeKuttaEvolve:evolver:dE/dt {Oxs_RungeKuttaEvolve:evolver:Delta E} Oxs_FixedZeeman::Energy Oxs_UniformExchange::Energy {Oxs_UniformExchange::Max Spin Ang} {Oxs_UniformExchange::Stage Max Spin Ang} {Oxs_UniformExchange::Run Max Spin Ang} Oxs_Demag::Energy    Oxs_UniaxialAnisotropy::Energy Oxs_TimeDriver::Iteration {Oxs_TimeDriver::Stage iteration} Oxs_TimeDriver::Stage Oxs_TimeDriver::mx   Oxs_TimeDriver::my   Oxs_TimeDriver::mz   {Oxs_TimeDriver::Last time step} {Oxs_TimeDriver::Simulation time}
# Units:                        J                                             {}                                         deg/ns                                 J/s                                   J                               J                         J                              deg                                    deg                                      deg                           J                          J                           {}                            {}                          {}                   {}                   {}                   {}                          s                                 s                
                      -1.3324956640654987e-18                            283                                          120520.63525406871                   -6.2488769148468673e-06                 -2.8033627360527291e-20           -2.6143130045482525e-18       9.8466846448658909e-19             5.5657024792001231                     8.2772251710741802                       8.2772251710741802             2.9625943867962682e-19       8.8943731653801313e-22         47                            47                          0                     0.99728126699380948  0.048439385981585752  0.050488973496593162        4.414253925922036e-15              2.0000000000000001e-13       
# Table End
