# ODT 1.0
# Table Start
# Title: mmArchive Data Table, Wed Jun 16 18:58:45 EDT 2010
# Columns: {Oxs_SpinXferEvolve:evolver:Total energy} {Oxs_SpinXferEvolve:evolver:Energy calc count} {Oxs_SpinXferEvolve:evolver:Max dm/dt} Oxs_SpinXferEvolve:evolver:dE/dt {Oxs_SpinXferEvolve:evolver:Delta E} {Oxs_SpinXferEvolve:evolver:average J} Oxs_FixedZeeman::Energy Oxs_UniformExchange::Energy {Oxs_UniformExchange::Max Spin Ang} {Oxs_UniformExchange::Stage Max Spin Ang} {Oxs_UniformExchange::Run Max Spin Ang} Oxs_Demag::Energy    Oxs_UniaxialAnisotropy::Energy Oxs_TimeDriver::Iteration {Oxs_TimeDriver::Stage iteration} Oxs_TimeDriver::Stage Oxs_TimeDriver::mx   Oxs_TimeDriver::my   Oxs_TimeDriver::mz   {Oxs_TimeDriver::Last time step} {Oxs_TimeDriver::Simulation time}
# Units:                       J                                           {}                                       deg/ns                               J/s                                 J                                   A/m^2                             J                         J                              deg                                    deg                                      deg                           J                          J                           {}                            {}                          {}                   {}                   {}                   {}                          s                                 s                
                     -2.3578866324388653e-18                          125                                        3136.1109197945993                 -4.3254172522739471e-10               -6.7929917246494034e-25                   0                             -2.6214384558634059e-18       9.9753305332753083e-23             0.20255820480183473                    0.20255820480183473                      0.20255820480183473            2.6345187710482335e-19       1.9301438442255975e-25         62                            62                          0                     0.99999941095863543 -1.1756817307889689e-22  1.0523537336687427e-21        1.570122738781914e-15              2.0000000000000001e-13       
# Table End
