# ODT 1.0
# Table Start
# Title: mmArchive Data Table, Wed Jun 16 18:58:35 EDT 2010
# Columns: {Oxs_SpinXferEvolve:evolver:Total energy} {Oxs_SpinXferEvolve:evolver:Energy calc count} {Oxs_SpinXferEvolve:evolver:Max dm/dt} Oxs_SpinXferEvolve:evolver:dE/dt {Oxs_SpinXferEvolve:evolver:Delta E} {Oxs_SpinXferEvolve:evolver:average J} Oxs_FixedZeeman::Energy Oxs_UniformExchange::Energy {Oxs_UniformExchange::Max Spin Ang} {Oxs_UniformExchange::Stage Max Spin Ang} {Oxs_UniformExchange::Run Max Spin Ang} Oxs_Demag::Energy    Oxs_UniaxialAnisotropy::Energy Oxs_TimeDriver::Iteration {Oxs_TimeDriver::Stage iteration} Oxs_TimeDriver::Stage Oxs_TimeDriver::mx   Oxs_TimeDriver::my   Oxs_TimeDriver::mz   {Oxs_TimeDriver::Last time step} {Oxs_TimeDriver::Simulation time}
# Units:                       J                                           {}                                       deg/ns                               J/s                                 J                                   A/m^2                             J                         J                              deg                                    deg                                      deg                           J                          J                           {}                            {}                          {}                   {}                   {}                   {}                          s                                 s                
                      1.357981843274157e-18                          277                                        195853.92320061868                 -2.7658228497348421e-05               -1.5446090704790342e-21                   0                             -2.6129013739155432e-18       3.669165222580745e-18             7.6143901561063858                     7.7907855255214651                       7.7907855255214651             3.0065307377782726e-19       1.0649208311277395e-21         138                           138                         0                     0.99674277264234257  0.049697752740185536  0.049875742168127263        5.5833085050873232e-17              1e-14                     
# Table End
