# ODT 1.0
# Table Start
# Title: mmArchive Data Table, Wed Jun 16 18:58:07 EDT 2010
# Columns: {Oxs_SpinXferEvolve:evolver:Total energy} {Oxs_SpinXferEvolve:evolver:Energy calc count} {Oxs_SpinXferEvolve:evolver:Max dm/dt} Oxs_SpinXferEvolve:evolver:dE/dt {Oxs_SpinXferEvolve:evolver:Delta E} {Oxs_SpinXferEvolve:evolver:average J} Oxs_FixedZeeman::Energy Oxs_UniformExchange::Energy {Oxs_UniformExchange::Max Spin Ang} {Oxs_UniformExchange::Stage Max Spin Ang} {Oxs_UniformExchange::Run Max Spin Ang} Oxs_Demag::Energy    Oxs_UniaxialAnisotropy::Energy Oxs_TimeDriver::Iteration {Oxs_TimeDriver::Stage iteration} Oxs_TimeDriver::Stage Oxs_TimeDriver::mx   Oxs_TimeDriver::my   Oxs_TimeDriver::mz   {Oxs_TimeDriver::Last time step} {Oxs_TimeDriver::Simulation time}
# Units:                       J                                           {}                                       deg/ns                               J/s                                 J                                   A/m^2                             J                         J                              deg                                    deg                                      deg                           J                          J                           {}                            {}                          {}                   {}                   {}                   {}                          s                                 s                
                     -1.3325306363790535e-18                          936                                        120517.96481791121                 -6.2485205610426836e-06               -1.6964489458796762e-20                   0                             -2.6143130169517898e-18       9.8463354486143399e-19             5.5656622117849608                     8.2844767163940745                       8.2844767163940745             2.962593999367817e-19       8.8943577452054735e-22         85                            85                          0                     0.99728127172538339  0.048439386207268717  0.050488973736893282        2.6884035866265206e-15              2.0000000000000001e-13       
# Table End
