# ODT 1.0
# Table Start
# Title: mmArchive Data Table, Wed Jun 16 18:51:30 EDT 2010
# Columns: {Oxs_EulerEvolve:evolver:Total energy} {Oxs_EulerEvolve:evolver:Energy calc count} {Oxs_EulerEvolve:evolver:Max dm/dt} Oxs_EulerEvolve:evolver:dE/dt {Oxs_EulerEvolve:evolver:Delta E} Oxs_FixedZeeman::Energy Oxs_UniformExchange::Energy {Oxs_UniformExchange::Max Spin Ang} {Oxs_UniformExchange::Stage Max Spin Ang} {Oxs_UniformExchange::Run Max Spin Ang} Oxs_Demag::Energy    Oxs_UniaxialAnisotropy::Energy Oxs_TimeDriver::Iteration {Oxs_TimeDriver::Stage iteration} Oxs_TimeDriver::Stage Oxs_TimeDriver::mx   Oxs_TimeDriver::my   Oxs_TimeDriver::mz   {Oxs_TimeDriver::Last time step} {Oxs_TimeDriver::Simulation time}
# Units:                     J                                        {}                                    deg/ns                             J/s                              J                            J                         J                              deg                                    deg                                      deg                           J                          J                           {}                            {}                          {}                   {}                   {}                   {}                          s                                 s                
                    -2.3578021548901094e-18                      116                                     3539.1034924745918              -4.5660826769764093e-10            -2.6665795990044207e-25         -2.6214399959773131e-18       3.0421096537670052e-25             0.014763195421520766                    0.014763195421520766                      0.014763195421520766            2.6363753637340237e-19       5.0283594078497168e-28         115                           115                         0                     0.99999999846546639 -5.6147696491119435e-24  5.2611333936332731e-23        5.8614832571114447e-16              1e-14                     
# Table End
