# ODT 1.0
# Table Start
# Title: mmArchive Data Table, Wed Jun 16 18:55:39 EDT 2010
# Columns: {Oxs_SpinXferEvolve:evolver:Total energy} {Oxs_SpinXferEvolve:evolver:Energy calc count} {Oxs_SpinXferEvolve:evolver:Max dm/dt} Oxs_SpinXferEvolve:evolver:dE/dt {Oxs_SpinXferEvolve:evolver:Delta E} {Oxs_SpinXferEvolve:evolver:average J} Oxs_FixedZeeman::Energy Oxs_UniformExchange::Energy {Oxs_UniformExchange::Max Spin Ang} {Oxs_UniformExchange::Stage Max Spin Ang} {Oxs_UniformExchange::Run Max Spin Ang} Oxs_Demag::Energy    Oxs_UniaxialAnisotropy::Energy Oxs_TimeDriver::Iteration {Oxs_TimeDriver::Stage iteration} Oxs_TimeDriver::Stage Oxs_TimeDriver::mx   Oxs_TimeDriver::my   Oxs_TimeDriver::mz   {Oxs_TimeDriver::Last time step} {Oxs_TimeDriver::Simulation time}
# Units:                       J                                           {}                                       deg/ns                               J/s                                 J                                   A/m^2                             J                         J                              deg                                    deg                                      deg                           J                          J                           {}                            {}                          {}                   {}                   {}                   {}                          s                                 s                
                     -1.332485836981018e-18                          265                                        120521.37840313822                 -6.2489771216236612e-06               -3.3928846074704454e-20                   0                             -2.6143130010644987e-18       9.8467827677459844e-19             5.5657130634407777                     8.2808886334443539                       8.2808886334443539             2.9625944955923796e-19       8.8943774964436025e-22         44                            44                          0                     0.99728126566486286  0.048439385918435739  0.050488973429140931        5.3245886006400725e-15              2.0000000000000001e-13       
# Table End
