# ODT 1.0
# Table Start
# Title: mmArchive Data Table, Wed Jun 16 18:56:22 EDT 2010
# Columns: {Oxs_SpinXferEvolve:evolver:Total energy} {Oxs_SpinXferEvolve:evolver:Energy calc count} {Oxs_SpinXferEvolve:evolver:Max dm/dt} Oxs_SpinXferEvolve:evolver:dE/dt {Oxs_SpinXferEvolve:evolver:Delta E} {Oxs_SpinXferEvolve:evolver:average J} Oxs_FixedZeeman::Energy Oxs_UniformExchange::Energy {Oxs_UniformExchange::Max Spin Ang} {Oxs_UniformExchange::Stage Max Spin Ang} {Oxs_UniformExchange::Run Max Spin Ang} Oxs_Demag::Energy    Oxs_UniaxialAnisotropy::Energy Oxs_TimeDriver::Iteration {Oxs_TimeDriver::Stage iteration} Oxs_TimeDriver::Stage Oxs_TimeDriver::mx   Oxs_TimeDriver::my   Oxs_TimeDriver::mz   {Oxs_TimeDriver::Last time step} {Oxs_TimeDriver::Simulation time}
# Units:                       J                                           {}                                       deg/ns                               J/s                                 J                                   A/m^2                             J                         J                              deg                                    deg                                      deg                           J                          J                           {}                            {}                          {}                   {}                   {}                   {}                          s                                 s                
                     -2.3578866292717786e-18                          145                                        3136.6647952394096                 -4.3254734291016048e-10               -9.2932623060674272e-24                   0                             -2.6214384558847117e-18       9.9749727860619315e-23             0.20252229431173127                    0.20252229431173127                      0.20252229431173127            2.6345188387335107e-19       1.9301172121123588e-25         24                            24                          0                     0.99999941096676292 -1.1855073129771188e-22  1.0577408632132802e-21        2.1419377081019243e-14              2.0000000000000001e-13       
# Table End
