# ODT 1.0
# Table Start
# Title: mmArchive Data Table, Wed Jun 16 18:58:16 EDT 2010
# Columns: {Oxs_SpinXferEvolve:evolver:Total energy} {Oxs_SpinXferEvolve:evolver:Energy calc count} {Oxs_SpinXferEvolve:evolver:Max dm/dt} Oxs_SpinXferEvolve:evolver:dE/dt {Oxs_SpinXferEvolve:evolver:Delta E} {Oxs_SpinXferEvolve:evolver:average J} Oxs_FixedZeeman::Energy Oxs_UniformExchange::Energy {Oxs_UniformExchange::Max Spin Ang} {Oxs_UniformExchange::Stage Max Spin Ang} {Oxs_UniformExchange::Run Max Spin Ang} Oxs_Demag::Energy    Oxs_UniaxialAnisotropy::Energy Oxs_TimeDriver::Iteration {Oxs_TimeDriver::Stage iteration} Oxs_TimeDriver::Stage Oxs_TimeDriver::mx   Oxs_TimeDriver::my   Oxs_TimeDriver::mz   {Oxs_TimeDriver::Last time step} {Oxs_TimeDriver::Simulation time}
# Units:                       J                                           {}                                       deg/ns                               J/s                                 J                                   A/m^2                             J                         J                              deg                                    deg                                      deg                           J                          J                           {}                            {}                          {}                   {}                   {}                   {}                          s                                 s                
                     -2.3578866324382636e-18                          125                                        3136.1109212160959                 -4.3254172581284373e-10               -6.8038848190795239e-25                   0                             -2.6214384558633944e-18       9.9753306694439744e-23             0.20255820645504719                    0.20255820645504719                      0.20255820645504719            2.6345187710405018e-19       1.9301438587029761e-25         62                            62                          0                     0.99999941095863099 -1.2132899936470599e-22  1.0537259270432946e-21        1.5726399625508124e-15              2.0000000000000001e-13       
# Table End
