# ODT 1.0
# Table Start
# Title: mmArchive Data Table, Wed Jun 16 18:52:16 EDT 2010
# Columns: {Oxs_RungeKuttaEvolve:evolver:Total energy} {Oxs_RungeKuttaEvolve:evolver:Energy calc count} {Oxs_RungeKuttaEvolve:evolver:Max dm/dt} Oxs_RungeKuttaEvolve:evolver:dE/dt {Oxs_RungeKuttaEvolve:evolver:Delta E} Oxs_FixedZeeman::Energy Oxs_UniformExchange::Energy {Oxs_UniformExchange::Max Spin Ang} {Oxs_UniformExchange::Stage Max Spin Ang} {Oxs_UniformExchange::Run Max Spin Ang} Oxs_Demag::Energy    Oxs_UniaxialAnisotropy::Energy Oxs_TimeDriver::Iteration {Oxs_TimeDriver::Stage iteration} Oxs_TimeDriver::Stage Oxs_TimeDriver::mx   Oxs_TimeDriver::my   Oxs_TimeDriver::mz   {Oxs_TimeDriver::Last time step} {Oxs_TimeDriver::Simulation time}
# Units:                        J                                             {}                                         deg/ns                                 J/s                                   J                               J                         J                              deg                                    deg                                      deg                           J                          J                           {}                            {}                          {}                   {}                   {}                   {}                          s                                 s                
                      -2.3578866235303165e-18                            139                                          3136.2008101390247                   -4.3257171942272336e-10                 -2.4785234250963585e-23           -2.6214384558755401e-18       9.9758220279704632e-23             0.20266973994352733                    0.20266973994352733                      0.20266973994352733            2.6345188111207617e-19       1.9301286760445075e-25         23                            23                          0                     0.99999941096326428 -1.2005844994382453e-22  1.0577408632132802e-21        5.6837356416960727e-14              2.0000000000000001e-13       
# Table End
