# ODT 1.0
# Table Start
# Title: mmArchive Data Table, Wed Jun 16 18:52:42 EDT 2010
# Columns: {Oxs_RungeKuttaEvolve:evolver:Total energy} {Oxs_RungeKuttaEvolve:evolver:Energy calc count} {Oxs_RungeKuttaEvolve:evolver:Max dm/dt} Oxs_RungeKuttaEvolve:evolver:dE/dt {Oxs_RungeKuttaEvolve:evolver:Delta E} Oxs_FixedZeeman::Energy Oxs_UniformExchange::Energy {Oxs_UniformExchange::Max Spin Ang} {Oxs_UniformExchange::Stage Max Spin Ang} {Oxs_UniformExchange::Run Max Spin Ang} Oxs_Demag::Energy    Oxs_UniaxialAnisotropy::Energy Oxs_TimeDriver::Iteration {Oxs_TimeDriver::Stage iteration} Oxs_TimeDriver::Stage Oxs_TimeDriver::mx   Oxs_TimeDriver::my   Oxs_TimeDriver::mz   {Oxs_TimeDriver::Last time step} {Oxs_TimeDriver::Simulation time}
# Units:                        J                                             {}                                         deg/ns                                 J/s                                   J                               J                         J                              deg                                    deg                                      deg                           J                          J                           {}                            {}                          {}                   {}                   {}                   {}                          s                                 s                
                      -2.3578866292059704e-18                            145                                          3136.4974211374492                   -4.3254716006595999e-10                 -1.6127203944471371e-23           -2.6214384558841035e-18       9.975034226376797e-23             0.20253610687610188                    0.20253610687610188                      0.20253610687610188            2.6345188332407191e-19       1.9301179724798765e-25         24                            24                          0                     0.99999941096653089 -1.1866931591032748e-22  1.0546068413084392e-21        3.7087256874781683e-14              2.0000000000000001e-13       
# Table End
