# ODT 1.0
# Table Start
# Title: mmArchive Data Table, Wed Jun 16 18:55:20 EDT 2010
# Columns: {Oxs_SpinXferEvolve:evolver:Total energy} {Oxs_SpinXferEvolve:evolver:Energy calc count} {Oxs_SpinXferEvolve:evolver:Max dm/dt} Oxs_SpinXferEvolve:evolver:dE/dt {Oxs_SpinXferEvolve:evolver:Delta E} {Oxs_SpinXferEvolve:evolver:average J} Oxs_FixedZeeman::Energy Oxs_UniformExchange::Energy {Oxs_UniformExchange::Max Spin Ang} {Oxs_UniformExchange::Stage Max Spin Ang} {Oxs_UniformExchange::Run Max Spin Ang} Oxs_Demag::Energy    Oxs_UniaxialAnisotropy::Energy Oxs_TimeDriver::Iteration {Oxs_TimeDriver::Stage iteration} Oxs_TimeDriver::Stage Oxs_TimeDriver::mx   Oxs_TimeDriver::my   Oxs_TimeDriver::mz   {Oxs_TimeDriver::Last time step} {Oxs_TimeDriver::Simulation time}
# Units:                       J                                           {}                                       deg/ns                               J/s                                 J                                   A/m^2                             J                         J                              deg                                    deg                                      deg                           J                          J                           {}                            {}                          {}                   {}                   {}                   {}                          s                                 s                
                     -2.3578866238932722e-18                          139                                        3136.6148875580866                 -4.3257091397054982e-10               -2.0740206647653196e-23                   0                             -2.6214384558769075e-18       9.9756853911067164e-23             0.2026472225478918                     0.2026472225478918                       0.2026472225478918             2.6345188211702728e-19       1.9301269672629586e-25         23                            23                          0                     0.99999941096378575 -1.1692442803898362e-22  1.0525061995992485e-21        4.762203240150527e-14              2.0000000000000001e-13       
# Table End
