# ODT 1.0
# Table Start
# Title: mmArchive Data Table, Wed Jun 16 18:59:06 EDT 2010
# Columns: {Oxs_RungeKuttaEvolve:evolve:Total energy} {Oxs_RungeKuttaEvolve:evolve:Energy calc count} {Oxs_RungeKuttaEvolve:evolve:Max dm/dt} Oxs_RungeKuttaEvolve:evolve:dE/dt {Oxs_RungeKuttaEvolve:evolve:Delta E} Oxs_Exchange6Ngbr::Energy {Oxs_Exchange6Ngbr::Max Spin Ang} {Oxs_Exchange6Ngbr::Stage Max Spin Ang} {Oxs_Exchange6Ngbr::Run Max Spin Ang} Oxs_FixedZeeman:Bias:Energy Oxs_TwoSurfaceExchange:AF:Energy {Oxs_TwoSurfaceExchange:AF:Max Spin Ang} {Oxs_TwoSurfaceExchange:AF:Stage Max Spin Ang} {Oxs_TwoSurfaceExchange:AF:Run Max Spin Ang} Oxs_UZeeman::Energy  Oxs_UZeeman::B       Oxs_UZeeman::Bx      Oxs_UZeeman::By      Oxs_UZeeman::Bz      Oxs_Demag::Energy    Oxs_TimeDriver::Iteration {Oxs_TimeDriver::Stage iteration} Oxs_TimeDriver::Stage Oxs_TimeDriver::mx   Oxs_TimeDriver::my   Oxs_TimeDriver::mz   {Oxs_TimeDriver::Max Spin Ang} {Oxs_TimeDriver::Stage Max Spin Ang} {Oxs_TimeDriver::Run Max Spin Ang} {Oxs_TimeDriver::Last time step} {Oxs_TimeDriver::Simulation time}
# Units:                       J                                            {}                                        deg/ns                                 J/s                                  J                               J                            deg                                  deg                                    deg                               J                             J                                   deg                                         deg                                           deg                               J                 mT                   mT                   mT                   mT                     J                       {}                            {}                          {}                   {}                   {}                   {}                        deg                               deg                                 deg                                s                                 s                
                      -3.9851586851989661e-18                          1                                           2302.6962166470853                  -5.582088481252502e-08                 0                               0                             0                                    0                                      0                               -1.6716624795527818e-17            0                                    0                                           0                                             0                                0                    0                    0                    0                    0                    1.2731466110328854e-17    0                             0                           0                     0.99503719020998915  0.099503719020998901  0                         0                                 0                                   0                                 0                                0                         
                      -3.9853888757241006e-18                          7                                           2302.206767719626                   -5.5770464554975032e-08                -2.3019052513399163e-22             1.4118187267356095e-25           0.0066390340163772418                  0.0066390340163772418                    0.0066390340163772418             -1.6716629099320071e-17           -1.0912049820561813e-26                  0.013032428555643374                         0.013032428555643374                           0.013032428555643374              0                    0                    0                    0                    0                    1.2731240093326147e-17    1                             1                           0                     0.99503737445410523  0.099501874080962713  3.7037641790068095e-06       0.013032428555643374               0.013032428555643374                 0.013032428555643374               4.1255984750922897e-15              4.1255984750922897e-15       
                      -3.9863075622325392e-18                          13                                          2300.2153923415535                  -5.5569517942335664e-08                -9.1868650843914018e-22             3.5158417236116972e-24           0.033150534205192289                  0.033150534205192289                    0.033150534205192289             -1.6716646309754537e-17           -2.7218921238089609e-25                  0.06507981469035326                         0.06507981469035326                           0.06507981469035326              0                    0                    0                    0                    0                    1.2730335503869489e-17    2                             2                           0                     0.99503810985926122  0.099494460169179982  1.8497159307904859e-05       0.06507981469035326               0.06507981469035326                 0.06507981469035326               1.6502393900369159e-14              2.0627992375461448e-14       
                      -3.9899494377529384e-18                          19                                          2291.7248626195396                  -5.4777462051998959e-08                -3.6418755203985221e-21             6.1055436273667441e-23           0.13845832018405402                  0.13845832018405402                    0.13845832018405402             -1.6716715083093376e-17           -4.7584424805978017e-24                  0.2719439880175325                          0.2719439880175325                            0.2719439880175325               0                    0                    0                    0                    0                    1.2726709348346644e-17    3                             3                           0                     0.99504102683880258  0.099464260631146842  7.7324592173985839e-05       0.2719439880175325                0.2719439880175325                  0.2719439880175325                6.6009575601476636e-14              8.663756797693808e-14       
                      -4.0040125712964371e-18                          25                                          2250.1494213572887                  -5.1795305474661021e-08                -1.4063133543499291e-20             9.3810301663144745e-22           0.54647522128098314                  0.54647522128098314                    0.54647522128098314             -1.6716989534162203e-17           -7.519995163487274e-23                  1.0777434401323447                          1.0777434401323447                            1.0777434401323447               0                    0                    0                    0                    0                    1.271211405980077e-17    4                             4                           0                     0.99505233139476346  0.099334921078187255  0.00030712484252179174       1.0777434401323447                1.0777434401323447                  1.0777434401323447                2.6403830240590654e-13              3.5067587038284465e-13       
                      -4.0535134237394446e-18                          31                                          2009.8120432111436                  -4.2641220139813603e-08                -4.950085244300701e-20             1.1498761153863415e-20           1.91079100517211                     1.91079100517211                       1.91079100517211                -1.6718100780708447e-17           -1.0493635844756088e-21                  3.9412855985823825                          3.9412855985823825                            3.9412855985823825               0                    0                    0                    0                    0                    1.2654137959399615e-17    5                             5                           0                     0.99509340351273989  0.098690848458091243  0.0011402289396229329       3.9412855985823825                3.9412855985823825                  3.9412855985823825                1.0561532096236262e-12              1.4068290800064707e-12       
                      -4.1122919648898697e-18                          37                                          1659.7800059592084                  -3.5398189936297224e-08                -5.8778541150425047e-20             3.3531882568814525e-20           3.0995216722106571                   3.0995216722106571                     3.0995216722106571              -1.6719817021417344e-17           -3.7593823367160207e-21                  7.135140554040392                           7.135140554040392                             7.135140554040392                0                    0                    0                    0                    0                    1.2577752556295378e-17    6                             6                           0                     0.99514687506755029  0.097457462156361363  0.0021136426795141036       7.135140554040392                 7.135140554040392                   7.135140554040392                 1.5243993953449578e-12              2.9312284753514283e-12       
                      -4.1705335094153793e-18                          43                                          1515.7765821108958                  -3.2043667837078181e-08                -5.8241544525510255e-20             5.6464285202767875e-20           3.7594213560176239                   3.7594213560176239                     3.7594213560176239              -1.6721935020709075e-17           -7.9024964106496652e-21                  9.8096806909154033                          9.8096806909154033                            9.8096806909154033               0                    0                    0                    0                    0                    1.2502839722501578e-17    7                             7                           0                     0.99520215377805743  0.095713712143631391  0.0029293262162837538       9.8096806909154033                9.8096806909154033                  9.8096806909154033                1.742913816788377e-12              4.6741422921398053e-12       
                      -4.2394110945742467e-18                          49                                          1471.6737031399532                  -3.1397202939435498e-08                -6.8877585158867072e-20             7.9687314653768316e-20           4.2432118391985041                   4.2432118391985041                     4.2432118391985041              -1.6724570047574387e-17           -1.4043858684660595e-20                  12.375332091959072                          12.375332091959072                            12.375332091959072               0                    0                    0                    0                    0                    1.2419515497031031e-17    8                             8                           0                     0.99525184850636361  0.093196032433821033  0.0035711157596299949       12.375332091959072                12.375332091959072                  12.375332091959072                2.1862885441254222e-12              6.8604308362652275e-12       
                      -4.3132899695066582e-18                          61                                          1489.3449763465335                  -3.2588590157433709e-08                -7.3878874932411446e-20             1.0113691514207075e-19           4.6441447485074381                   4.6441447485074381                     4.6441447485074381              -1.6726871268966329e-17           -2.158894282496922e-20                  14.677462108236465                          14.677462108236465                            14.677462108236465               0                    0                    0                    0                    0                    1.233403332714257e-17    9                             9                           0                     0.99525678970458253  0.090324192811711307  0.0038757157681578356       14.677462108236465                14.677462108236465                  14.677462108236465                2.3163110789761098e-12              9.1767419152413366e-12       
                      -3.390230605980938e-16                          62                                          1557.2649164621946                  -1.2870767640049759e-07                -3.3470977062858711e-16             1.0113691514207075e-19           4.6441447485074381                   4.6441447485074381                     4.6441447485074381              -1.6726871268966329e-17           -2.158894282496922e-20                  14.677462108236465                          14.677462108236465                            14.677462108236465              -3.3470977062858711e-16  500.02499937503126   500.00000000000006   5                    0                    1.233403332714257e-17    10                            0                           1                     0.99525678970458253  0.090324192811711307  0.0038757157681578356       14.677462108236465                14.677462108236465                  14.677462108236465                0                                9.1767419152413366e-12       
                      -3.3902378674767927e-16                          68                                          1555.7789589335757                  -1.2865960950217259e-07                -7.2614958548181752e-22             1.0114821490090512e-19           4.6441574769782923                   4.6441574769782923                     4.6441574769782923              -1.6726902330833176e-17           -2.1600357999285295e-20                  14.679959208582719                          14.679959208582719                            14.679959208582719              -3.347102404283299e-16  500.02499937503126   500.00000000000006   5                    0                    1.2333808154582191e-17    11                            1                           1                     0.99525843315580875  0.090299669041109837  0.0039071910657148988       14.679959208582719                14.679959208582719                  14.679959208582719                5.6429062949440263e-15              9.1823848215362816e-12       
                      -3.3902668866113597e-16                          74                                          1549.8504870376794                  -1.2847058389172517e-07                -2.9019134566852943e-21             1.011928180313059e-19           4.644201833674245                    4.644201833674245                      4.644201833674245               -1.6727027032815351e-17           -2.1645842124340575e-20                  14.689894008564941                          14.689894008564941                            14.689894008564941              -3.3471212849206603e-16  500.02499937503126   500.00000000000006   5                    0                    1.2332919887838449e-17    12                            2                           1                     0.99526503805279021  0.090201103073950475  0.0040327055376398        14.689894008564941                14.689894008564941                  14.689894008564941                2.2571625179776105e-14              9.204956446716057e-12       
                      -3.3903825536636337e-16                          80                                          1526.3832751501834                  -1.277648865961233e-07                -1.1566705227424744e-20             1.0136187231306416e-19           4.6442811677599245                   4.6442811677599245                     4.6442811677599245              -1.6727532989588254e-17           -2.1824950806446608e-20                  14.728786226547545                          14.728786226547545                            14.728786226547545              -3.3471982052908223e-16  500.02499937503126   500.00000000000006   5                    0                    1.2329561230800506e-17    13                            3                           1                     0.99529194815433986  0.089799389650007347  0.0045285907599880758       14.728786226547545                14.728786226547545                  14.728786226547545                9.028650071910442e-14              9.2952429474351617e-12       
                      -3.390839847080272e-16                          86                                          1436.4952892863621                  -1.2565857422627539e-07                -4.5729341663846586e-20             1.0189923589089487e-19           4.643435510105566                    4.6442811677599245                     4.6442811677599245              -1.6729663283691403e-17           -2.2496038216634818e-20                  14.871441034265612                          14.871441034265612                            14.871441034265612              -3.347526922824807e-16  500.02499937503126   500.00000000000006   5                    0                    1.2318967660470609e-17    14                            4                           1                     0.99540698767823144  0.088078697200861672  0.0064143518391743953       14.871441034265612                14.871441034265612                  14.871441034265612                3.6114600287641768e-13              9.6563889503115789e-12       
                      -3.3926059005388404e-16                          92                                          1221.6382087173208                  -1.2386719673758142e-07                -1.7660534585680893e-19             1.0241005504834419e-19           4.63932459818641                     4.6442811677599245                     4.6442811677599245              -1.673922783502823e-17           -2.4440718994246933e-20                  15.262333792033902                          15.262333792033902                            15.262333792033902              -3.3490656452131425e-16  500.02499937503126   500.00000000000006   5                    0                    1.230723296640436e-17    15                            5                           1                     0.99594724924243228  0.079847849957435171  0.0123858695400745        15.262333792033902                15.262333792033902                  15.262333792033902                1.4218425454303261e-12              1.1078231495741906e-11       
                      -3.394655195067971e-16                          98                                          1197.0580521584707                  -1.2316318814208313e-07                -2.0492945291307041e-19             1.0105640583387547e-19           4.648478168558464                    4.648478168558464                      4.648478168558464               -1.6751136359323993e-17           -2.5401458652337622e-20                  15.442596526734766                          15.442596526734766                            15.442596526734766              -3.3510624702707377e-16  500.02499937503126   500.00000000000006   5                    0                    1.2316208932419144e-17    16                            6                           1                     0.99665610720979192  0.068391370411809177  0.01670576606062742       15.442596526734766                15.442596526734766                  15.442596526734766                1.6544940248898841e-12              1.273272552063179e-11       
                      -3.3969810326546903e-16                          104                                         1167.046211325365                   -1.1366067833722116e-07                -2.325837586719579e-19             9.7737520768718854e-20           4.6374078908697678                   4.648478168558464                      4.648478168558464               -1.6763891488461302e-17           -2.5057692900935538e-20                  15.357561596324436                          15.442596526734766                            15.442596526734766              -3.3532567963783298e-16  500.02499937503126   500.00000000000006   5                    0                    1.2318788032957451e-17    17                            7                           1                     0.997452521909031    0.054057225118615417  0.018820610262376313       15.357561596324436                15.442596526734766                  15.442596526734766                1.9489271956701258e-12              1.4681652716301916e-11       
                      -3.3986729632423515e-16                          116                                         1126.9560822383246                  -9.8603365511626257e-08                -1.6919305876610818e-19             9.3886868707404113e-20           4.5970004515183982                   4.648478168558464                      4.648478168558464               -1.6772271054300724e-17           -2.3914026347003916e-20                  15.108653012046089                          15.442596526734766                            15.442596526734766              -3.3547163623644407e-16  500.02499937503126   500.00000000000006   5                    0                    1.2306638124149229e-17    18                            8                           1                     0.99799949564135326  0.042799315758727391  0.018728175772535334       15.108653012046089                15.442596526734766                  15.442596526734766                1.5876514370521373e-12              1.6269304153354052e-11       
                      -3.4000044656947597e-16                          122                                         1092.8916860066133                  -8.1325353900749426e-08                -1.3315024524082586e-19             8.9575686165091049e-20           4.5368404371755178                   4.648478168558464                      4.648478168558464               -1.6778284733891076e-17           -2.2397190011973392e-20                  14.775293867357593                          15.442596526734766                            15.442596526734766              -3.3557662927833499e-16  500.02499937503126   500.00000000000006   5                    0                    1.2287288946596959e-17    19                            9                           1                     0.99840752715497516  0.033244093530744312  0.017598124223508999       14.775293867357593                15.442596526734766                  15.442596526734766                1.4777122906849785e-12              1.7747016444039031e-11       
                       3.3115281198719397e-16                          123                                         2252.6627461158291                  -7.5170928315795729e-08                 6.7115325855666999e-16             8.9575686165091049e-20           4.5368404371755178                   4.5368404371755178                     4.648478168558464               -1.6778284733891076e-17           -2.2397190011973392e-20                  14.775293867357593                          14.775293867357593                            15.442596526734766               3.3557662927833499e-16  500.02499937503126  -500.00000000000006  -5                    0                    1.2287288946596959e-17    20                            0                           2                     0.99840752715497516  0.033244093530744312  0.017598124223508999       14.775293867357593                14.775293867357593                  15.442596526734766                0                                1.7747016444039031e-11       
                       3.3115254075283452e-16                          129                                         2252.589124135352                   -7.5165363518522341e-08                -2.7123435947763755e-22             8.9609434082676338e-20           4.5377766610643988                   4.5377766610643988                     4.648478168558464               -1.677828612186062e-17           -2.2404364884511553e-20                  14.778108924911269                          14.778108924911269                            15.442596526734766               3.3557662859034726e-16  500.02499937503126  -500.00000000000006  -5                    0                    1.2286993215149691e-17    21                            1                           2                     0.99840759663870415  0.033236940399596786  0.017587060573339822       14.778108924911269                14.778108924911269                  15.442596526734766                3.608368591355062e-15              1.7750624812630388e-11       
                       3.311514560130783e-16                          135                                         2252.29809608502                    -7.5143680095016111e-08                -1.0847397562066928e-21             8.9744837090934087e-20           4.5415309535282322                   4.5415309535282322                     4.648478168558464               -1.6778291540930809e-17           -2.2433176679658613e-20                  14.789391772547075                          14.789391772547075                            15.442596526734766               3.3557662269154774e-16  500.02499937503126  -500.00000000000006  -5                    0                    1.2285813202050079e-17    22                            2                           2                     0.99840786468707066  0.033208379967853918  0.017542850509876803       14.789391772547075                14.789391772547075                  15.442596526734766                1.4433474365420248e-14              1.7765058286995807e-11       
                       3.3114711998457224e-16                          141                                         2254.1506845915455                  -7.506614119629802e-08                -4.3360285060562604e-21             9.0292972011908934e-20           4.556692033325521                    4.556692033325521                      4.648478168558464               -1.6778311094688985e-17           -2.2550229786365911e-20                  14.834883845464296                          14.834883845464296                            15.442596526734766               3.3557654879107264e-16  500.02499937503126  -500.00000000000006  -5                    0                    1.2281139545963065e-17    23                            3                           2                     0.99840877884965928  0.033094969519959237  0.01736671995701039       14.834883845464296                14.834883845464296                  15.442596526734766                5.7733897461680992e-14              1.7822792184457489e-11       
                       3.3112980796856731e-16                          147                                         2274.7096829435905                  -7.4902039509535899e-08                -1.7312016004932234e-20             9.2586282894653651e-20           4.6192368137397208                   4.6192368137397208                     4.648478168558464               -1.6778355488235076e-17           -2.3047933403808065e-20                  15.022558540134881                          15.022558540134881                            15.442596526734766               3.355754507633344e-16  500.02499937503126  -500.00000000000006  -5                    0                    1.2263174343977166e-17    24                            4                           2                     0.99840991571833848  0.032654488682320827  0.016673369472462875       15.022558540134881                15.022558540134881                  15.442596526734766                2.3093558984672397e-13              1.8053727774304211e-11       
                       3.310601446985317e-16                          153                                         2369.9711260352819                  -7.6527960871515676e-08                -6.9663270035609554e-20             1.0318387512331836e-19           4.8778522864381966                   4.8778522864381966                     4.8778522864381966              -1.6777997004067516e-17           -2.5553530787572078e-20                  15.863461434527293                          15.863461434527293                            15.863461434527293               3.3555828205515748e-16  500.02499937503126  -500.00000000000006  -5                    0                    1.2202229303105999e-17    25                            5                           2                     0.99837441691773399  0.031094634166321033  0.01406740769070527       15.863461434527293                15.863461434527293                  15.863461434527293                9.2374235938689588e-13              1.8977470133691107e-11       
                       3.3090014438885263e-16                          159                                         2724.281745883769                   -9.1501096960194363e-08                -1.6000030967905953e-19             1.3175303723959483e-19           5.3213844741233629                   5.3213844741233629                     5.3213844741233629              -1.6774408934523925e-17           -3.4221814301411155e-20                  18.163245245129886                          18.163245245129886                            18.163245245129886               3.3545376981193183e-16  500.02499937503126  -500.00000000000006  -5                    0                    1.2123252288506552e-17    26                            6                           2                     0.99808655269417312  0.02877622222905463  0.0093421428103074456       18.163245245129886                18.163245245129886                  18.163245245129886                1.9345819078793694e-12              2.0912052041570476e-11       