# ODT 1.0
# Table Start
# Title: mmArchive Data Table, Sun Oct 16 00:42:48 EDT 2011
# Columns: {Oxs_RungeKuttaEvolve:evolve:Total energy} {Oxs_RungeKuttaEvolve:evolve:Energy calc count} {Oxs_RungeKuttaEvolve:evolve:Max dm/dt} Oxs_RungeKuttaEvolve:evolve:dE/dt {Oxs_RungeKuttaEvolve:evolve:Delta E} Oxs_Exchange6Ngbr::Energy {Oxs_Exchange6Ngbr::Max Spin Ang} {Oxs_Exchange6Ngbr::Stage Max Spin Ang} {Oxs_Exchange6Ngbr::Run Max Spin Ang} Oxs_FixedZeeman:Bias:Energy Oxs_TwoSurfaceExchange:AF:Energy {Oxs_TwoSurfaceExchange:AF:Max Spin Ang} {Oxs_TwoSurfaceExchange:AF:Stage Max Spin Ang} {Oxs_TwoSurfaceExchange:AF:Run Max Spin Ang} Oxs_UZeeman::Energy  Oxs_UZeeman::B       Oxs_UZeeman::Bx      Oxs_UZeeman::By      Oxs_UZeeman::Bz      Oxs_Demag::Energy    Oxs_TimeDriver::Iteration {Oxs_TimeDriver::Stage iteration} Oxs_TimeDriver::Stage Oxs_TimeDriver::mx   Oxs_TimeDriver::my   Oxs_TimeDriver::mz   {Oxs_TimeDriver::Max Spin Ang} {Oxs_TimeDriver::Stage Max Spin Ang} {Oxs_TimeDriver::Run Max Spin Ang} {Oxs_TimeDriver::Last time step} {Oxs_TimeDriver::Simulation time}
# Units:                       J                                            {}                                        deg/ns                                 J/s                                  J                               J                            deg                                  deg                                    deg                               J                             J                                   deg                                         deg                                           deg                               J                 mT                   mT                   mT                   mT                     J                       {}                            {}                          {}                   {}                   {}                   {}                        deg                               deg                                 deg                                s                                 s                
                      -3.9851586850581005e-18                          1                                           2302.6962167953843                  -5.5820884819681562e-08                 0                               0                             0                                    0                                      0                               -1.6716624795528188e-17            0                                    0                                           0                                             0                                0                    0                    0                    0                    0                    1.2731466110470087e-17    0                             0                           0                     0.99503719020992265  0.099503719020996889  0                         0                                 0                                   0                                 0                                0                         
                      -3.9853888712165917e-18                          7                                           2302.1250518662146                  -5.5768348107628326e-08                -2.3018615884301195e-22             1.4117864951695181e-25           0.006638913024220437                  0.006638913024220437                    0.006638913024220437             -1.67166290993702e-17           -1.2734651056356705e-34                  0.013032248217530549                         0.013032248217530549                           0.013032248217530549              0                    0                    0                    0                    0                    1.2731240086974959e-17    1                             1                           0                     0.99503737445411045  0.099501874080963892  3.7037641782241947e-06       0.013032248217530549               0.013032248217530549                 0.013032248217530549               4.1255984748265911e-15              4.1255984748265911e-15       
                      -3.9863074530306643e-18                          13                                          2299.8073869383984                  -5.5558949783468883e-08                -9.1858181409766656e-22             3.5154392922794337e-24           0.033147515886685061                  0.033147515886685061                    0.033147515886685061             -1.6716646311011085e-17           -7.9170567833964423e-32                  0.065075302651486422                         0.065075302651486422                           0.065075302651486422              0                    0                    0                    0                    0                    1.2730335342541209e-17    2                             2                           0                     0.99503810985983909  0.099494460169253049  1.8497159260396113e-05       0.065075302651486422               0.065075302651486422                 0.065075302651486422               1.6502393899306364e-14              2.0627992374132956e-14       
                      -3.9899475206827409e-18                          19                                          2290.0210024331905                  -5.4733315678848708e-08                -3.6400676521033979e-21             6.1025767410052661e-23           0.13840551478451768                  0.13840551478451768                    0.13840551478451768             -1.6716715105513582e-17           -2.41138879080371e-29                  0.27186408075689811                         0.27186408075689811                           0.27186408075689811              0                    0                    0                    0                    0                    1.2726706559087544e-17    3                             3                           0                     0.99504102688215701  0.099464260636493412  7.7324588833123476e-05       0.27186408075689811               0.27186408075689811                 0.27186408075689811               6.6009575597225458e-14              8.663756797135841e-14       
                      -4.0039816323627866e-18                          25                                          2243.4174659458345                  -5.1620656577883383e-08                -1.4034111680021454e-20             9.3618381870362011e-22           0.54563945862543917                  0.54563945862543917                    0.54563945862543917             -1.6716989918031435e-17           -5.9251043776087305e-27                  1.076417295788288                           1.076417295788288                             1.076417295788288                0                    0                    0                    0                    0                    1.2712072107775049e-17    4                             4                           0                     0.99505233426101469  0.099334921435359574  0.0003071246301468881       1.076417295788288                 1.076417295788288                   1.076417295788288                 2.6403830238890183e-13              3.5067587036026025e-13       
                      -4.0530466393155533e-18                          31                                          1985.6768006106131                  -4.2006158849977283e-08                -4.906500695277927e-20             1.1393447983572484e-20           1.8993612499907018                   1.8993612499907018                     1.8993612499907018              -1.6718107946148484e-17           -1.0453303627199879e-24                  3.9196207773403784                          3.9196207773403784                            3.9196207773403784               0                    0                    0                    0                    0                    1.2653668904179719e-17    5                             5                           0                     0.99509358337018494  0.098690872109097882  0.0011402173259777791       3.9196207773403784                3.9196207773403784                  3.9196207773403784                1.0561532095556073e-12              1.4068290799158676e-12       
                      -4.1102820295796184e-18                          37                                          1618.4061732094135                  -3.4233629067741591e-08                -5.7235390264027686e-20             3.2783228545985876e-20           3.0603950210923037                   3.0603950210923037                     3.0603950210923037              -1.6719847802117401e-17           -1.1043741749374641e-23                  7.0359363995112707                          7.0359363995112707                            7.0359363995112707               0                    0                    0                    0                    0                    1.2576793587733545e-17    6                             6                           0                     0.99514825506698834  0.097461621823504194  0.002111153275545881       7.0359363995112707                7.0359363995112707                  7.0359363995112707                1.5200635212949661e-12              2.9268926012108334e-12       
                      -4.1658113214740553e-18                          43                                          1453.3189682233647                  -3.0313996429050221e-08                -5.5529291894462444e-20             5.4462634899737107e-20           3.6929002864484191                   3.6929002864484191                     3.6929002864484191              -1.6722024157516983e-17           -3.9152270391001214e-23                  9.5752846178315707                          9.5752846178315707                            9.5752846178315707               0                    0                    0                    0                    0                    1.2501789353413582e-17    7                             7                           0                     0.99520765169883307  0.09572571448696543  0.0029251196636380771       9.5752846178315707                9.5752846178315707                  9.5752846178315707                1.7369820011348749e-12              4.6638746023457088e-12       
                      -4.2300446465746846e-18                          49                                          1383.1480647812648                  -2.8919021795054568e-08                -6.4233325100596886e-20             7.5730001261128034e-20           4.15197407634213                     4.15197407634213                       4.15197407634213                -1.6724801591927259e-17           -9.67970329011963e-23                  11.902965420500854                          11.902965420500854                            11.902965420500854               0                    0                    0                    0                    0                    1.241912374112435e-17    8                             8                           0                     0.9952689931243045   0.093213849526696244  0.0035680141014186877       11.902965420500854                11.902965420500854                  11.902965420500854                2.1843096094462053e-12              6.848184211791914e-12       
                      -4.2970469358457703e-18                          61                                          1372.2490744628469                  -2.9183965425794291e-08                -6.7002289271088528e-20             9.466293151020479e-20           4.5297407320514935                   4.5297407320514935                     4.5297407320514935              -1.6727353420110922e-17           -1.800985407993864e-22                  13.837752040170869                          13.837752040170869                            13.837752040170869               0                    0                    0                    0                    0                    1.2335823651295746e-17    9                             9                           0                     0.99529711126863551  0.090351593879757761  0.0038738391270322645       13.837752040170869                13.837752040170869                  13.837752040170869                2.3128878380728127e-12              9.1610720498647275e-12       
                      -3.3902045767754256e-16                          62                                          1500.0342540369356                  -1.2745071404901628e-07                -3.3472341074169681e-16             9.466293151020479e-20           4.5297407320514935                   4.5297407320514935                     4.5297407320514935              -1.6727353420110922e-17           -1.800985407993864e-22                  13.837752040170869                          13.837752040170869                            13.837752040170869              -3.3472341074169681e-16  500.02499937503126   500                  5                    0                    1.2335823651295746e-17    10                            0                           1                     0.99529711126863551  0.090351593879757761  0.0038738391270322645       13.837752040170869                13.837752040170869                  13.837752040170869                0                                9.1610720498647275e-12       
                      -3.3902120417245475e-16                          68                                          1498.5440295308395                  -1.2740406747639192e-07                -7.4649491215231612e-22             9.4670365008179882e-20           4.5297179294276138                   4.5297407320514935                     4.5297407320514935              -1.6727386265464859e-17           -1.8019069900448772e-22                  13.839420957774792                          13.839420957774792                            13.839420957774792              -3.3472391872381552e-16  500.02499937503126   500                  5                    0                    1.2335610642516463e-17    11                            1                           1                     0.99529887764226388  0.090326141671107626  0.0039065302831775336       13.839420957774792                13.839420957774792                  13.839420957774792                5.8581995553440377e-15              9.1669302494200714e-12       
                      -3.3902418745022388e-16                          74                                          1492.6004998456401                  -1.2722097701780084e-07                -2.9832777690927145e-21             9.4699505519558299e-20           4.5296201049304328                   4.5297407320514935                     4.5297407320514935              -1.6727518135192005e-17           -1.8055610592643024e-22                  13.846037691167732                          13.846037691167732                            13.846037691167732              -3.3472596024708855e-16  500.02499937503126   500                  5                    0                    1.2334771982643028e-17    12                            2                           1                     0.99530597676959376  0.090223825150261186  0.0040368780316172772       13.846037691167732                13.846037691167732                  13.846037691167732                2.3432798221376151e-14              9.1903630476414469e-12       
                      -3.390360795788383e-16                          80                                          1469.1053681876072                  -1.2654289623944228e-07                -1.1892128614407137e-20             9.4806776580166457e-20           4.529130716654354                    4.5297407320514935                     4.5297407320514935              -1.6728053288195374e-17           -1.8196624605140717e-22                  13.871574884765799                          13.871574884765799                            13.871574884765799              -3.3473427751411148e-16  500.02499937503126   500                  5                    0                    1.2331626413134454e-17    13                            3                           1                     0.99533490348463449  0.089806530736193657  0.0045516156150927946       13.871574884765799                13.871574884765799                  13.871574884765799                9.3731192885504604e-14              9.2840942405269522e-12       
                      -3.3908312347072323e-16                          86                                          1379.6289610211425                  -1.245978257025959e-07                -4.7043891884962599e-20             9.5099795811433445e-20           4.526059846285146                    4.5297407320514935                     4.5297407320514935              -1.6730307780230119e-17           -1.8679297922929129e-22                  13.959643678534118                          13.959643678534118                            13.959643678534118              -3.3476981378394508e-16  500.02499937503126   500                  5                    0                    1.2322085090619748e-17    14                            4                           1                     0.99545858262796405  0.088014887187412849  0.006505213591400264       13.959643678534118                13.959643678534118                  13.959643678534118                3.7492477154201841e-13              9.6590190120689702e-12       
                      -3.3926075284607922e-16                          92                                          1295.7045792097347                  -1.2365406553581539e-07                -1.7762937535606321e-19             9.4798041339182689e-20           4.515357109720477                    4.5297407320514935                     4.5297407320514935              -1.6740136905573018e-17           -1.9413065677373517e-22                  14.124129799212668                          14.124129799212668                            14.124129799212668              -3.3493086688383982e-16  500.02499937503126   500                  5                    0                    1.2315647032651185e-17    15                            5                           1                     0.99602146877883757  0.079658742306877806  0.012503637909557592       14.124129799212668                14.124129799212668                  14.124129799212668                1.4372715782359704e-12              1.1096290590304941e-11       
                      -3.3946673938499533e-16                          98                                          1264.5149219283414                  -1.2354643117768188e-07                -2.0598653891605603e-19             9.2922680509620288e-20           4.518509675603311                    4.5297407320514935                     4.5297407320514935              -1.6752224432984396e-17           -1.8508720321544195e-22                  14.054002704836536                          14.124129799212668                            14.124129799212668              -3.3513659627421589e-16  500.02499937503126   500                  5                    0                    1.2329343728898531e-17    16                            6                           1                     0.99674910625840152  0.068123979581201005  0.016786430529152414       14.054002704836536                14.124129799212668                  14.124129799212668                1.6613705661695414e-12              1.2757661156474483e-11       
                      -3.3969882195246377e-16                          104                                         1222.2980324537066                  -1.1439294949103296e-07                -2.320825674684508e-19             8.9527356355970999e-20           4.500913015130303                    4.5297407320514935                     4.5297407320514935              -1.6764970408839286e-17           -1.6086135886989206e-22                  13.719751655575898                          14.124129799212668                            14.124129799212668              -3.3535837709274088e-16  500.02499937503126   500                  5                    0                    1.2335159054119321e-17    17                            7                           1                     0.99755157151684504  0.053883649726442981  0.01884094004058174       13.719751655575898                14.124129799212668                  14.124129799212668                1.935382126060079e-12              1.4693043282534562e-11       
                      -3.3986814317583462e-16                          116                                         1169.724155423072                   -9.948099533587286e-08                -1.6932122337082274e-19             8.5920689224314376e-20           4.4565003618395576                   4.5297407320514935                     4.5297407320514935              -1.6773328249799956e-17           -1.3736000917250821e-22                  13.313162188854255                          14.124129799212668                            14.124129799212668              -3.3550496309226856e-16  500.02499937503126   500                  5                    0                    1.2324364837018768e-17    18                            8                           1                     0.99809959661370917  0.042707925613785544  0.018732933437625738       13.313162188854255                14.124129799212668                  14.124129799212668                1.5768038979300303e-12              1.6269847180464593e-11       
                      -3.400016448164298e-16                          122                                         1128.7198242570564                  -8.2239975322987549e-08                -1.3350164059519955e-19             8.1999833189332915e-20           4.3935089698289671                   4.5297407320514935                     4.5297407320514935              -1.6779314231355198e-17           -1.162320597958708e-22                  12.874144769892649                          14.124129799212668                            14.124129799212668              -3.3560961329250669e-16  500.02499937503126   500                  5                    0                    1.2305399106302549e-17    19                            9                           1                     0.99850589109213994  0.033224370698620186  0.017606975705597654       12.874144769892649                14.124129799212668                  14.124129799212668                1.4668759840462251e-12              1.7736723164510814e-11       
                       3.3121758176858358e-16                          123                                         2109.8407957664494                  -6.7456133728368963e-08                 6.7121922658501338e-16             8.1999833189332915e-20           4.3935089698289671                   4.3935089698289671                     4.5297407320514935              -1.6779314231355198e-17           -1.162320597958708e-22                  12.874144769892649                          12.874144769892649                            14.124129799212668               3.3560961329250669e-16  500.02499937503126  -500                 -5                    0                    1.2305399106302549e-17    20                            0                           2                     0.99850589109213994  0.033224370698620186  0.017606975705597654       12.874144769892649                12.874144769892649                  14.124129799212668                0                                1.7736723164510814e-11       
                       3.3121732191097963e-16                          129                                         2109.6842178928059                  -6.7442661548728859e-08                -2.5985760398162066e-22             8.2032953541223465e-20           4.3944690145287346                   4.3944690145287346                     4.5297407320514935              -1.6779316342730256e-17           -1.1630365574062953e-22                  12.876407834315264                          12.876407834315264                            14.124129799212668               3.3560962988539307e-16  500.02499937503126  -500                 -5                    0                    1.2305091718431321e-17    21                            1                           2                     0.99850601683979312  0.033216734292577717  0.017595177886731726       12.876407834315264                12.876407834315264                  14.124129799212668                3.8526307370254228e-15              1.7740575795247839e-11       
                       3.312162829962587e-16                          135                                         2109.0614903292794                  -6.7389350396247963e-08                -1.0389147208941979e-21             8.2165872265402005e-20           4.3983199693713804                   4.3983199693713804                     4.5297407320514935              -1.6779324648102274e-17           -1.1659092340954514e-22                  12.8854746825525                            12.8854746825525                              14.124129799212668               3.3560969300498448e-16  500.02499937503126  -500                 -5                    0                    1.2303865358034503e-17    22                            2                           2                     0.99850650955710474  0.033186248153962386  0.017548037371696447       12.8854746825525                  12.8854746825525                    14.124129799212668                1.5410522948101691e-14              1.7755986318195943e-11       
                       3.3121213533980743e-16                          141                                         2106.6295562179034                  -6.7185318009526836e-08                -4.1476564512961515e-21             8.2704470365046933e-20           4.4138883664525839                   4.4138883664525839                     4.5297407320514935              -1.6779355632043866e-17           -1.1775417848212122e-22                  12.921972829375001                          12.921972829375001                            14.124129799212668               3.3560989354355546e-16  500.02499937503126  -500                 -5                    0                    1.2299010712109262e-17    23                            3                           2                     0.99850831635260218  0.033065252702888931  0.017360283948271906       12.921972829375001                12.921972829375001                  14.124129799212668                6.1642091792406764e-14              1.7817628409988349e-11       
                       3.3119565698420224e-16                          147                                         2108.3090667173847                  -6.6514800650837961e-08                -1.6478355605220214e-20             8.4965075819944255e-20           4.4783068339028249                   4.4783068339028249                     4.5297407320514935              -1.6779444037926986e-17           -1.2263712836566491e-22                  13.071499202699219                          13.071499202699219                            14.124129799212668               3.3560987008239708e-16  500.02499937503126  -500                 -5                    0                    1.2280388501040588e-17    24                            4                           2                     0.99851293617255155  0.032596288220371174  0.016621984778978329       13.071499202699219                13.071499202699219                  14.124129799212668                2.4656836716962706e-13              1.8064196777157976e-11       
                       3.3113056439762662e-16                          153                                         2186.4348391742806                  -6.6063479832047179e-08                -6.5092586575548532e-20             9.5463818443525699e-20           4.7440237733250363                   4.7440237733250363                     4.7440237733250363              -1.6779242170072795e-17           -1.4613149475429026e-22                  13.719720237055771                          13.719720237055771                            14.124129799212668               3.3559680521391911e-16  500.02499937503126  -500                 -5                    0                    1.2217683666831508e-17    25                            5                           2                     0.99849051057630778  0.030950494130889919  0.01385846690163638       13.719720237055771                13.719720237055771                  14.124129799212668                9.8627346867850823e-13              1.9050470245836483e-11       
                       3.3099492651387957e-16                          159                                         2477.9361979835694                  -7.4968297100531275e-08                -1.3563788374712417e-19             1.2176997834997709e-19           5.1650147843918539                   5.1650147843918539                     5.1650147843918539              -1.677625309620913e-17           -2.1882553142151499e-22                  15.25652495399555                           15.25652495399555                             15.25652495399555                3.3550953554215899e-16  500.02499937503126  -500                 -5                    0                    1.2140092915111164e-17    26                            6                           2                     0.99825354299682079  0.028674135484524771  0.0091373506209867002       15.25652495399555                 15.25652495399555                   15.25652495399555                 1.9527328043624406e-12              2.1003203050198925e-11       