# ODT 1.0
# Table Start
# Title: mmArchive Data Table, Wed Jun 16 18:59:19 EDT 2010
# Columns: {Oxs_RungeKuttaEvolve:evolve:Total energy} {Oxs_RungeKuttaEvolve:evolve:Energy calc count} {Oxs_RungeKuttaEvolve:evolve:Max dm/dt} Oxs_RungeKuttaEvolve:evolve:dE/dt {Oxs_RungeKuttaEvolve:evolve:Delta E} Oxs_ScriptUZeeman::Energy Oxs_ScriptUZeeman::B Oxs_ScriptUZeeman::Bx Oxs_ScriptUZeeman::By Oxs_ScriptUZeeman::Bz Oxs_FixedZeeman::Energy Oxs_TimeDriver::Iteration {Oxs_TimeDriver::Stage iteration} Oxs_TimeDriver::Stage Oxs_TimeDriver::mx   Oxs_TimeDriver::my   Oxs_TimeDriver::mz   {Oxs_TimeDriver::Max Spin Ang} {Oxs_TimeDriver::Stage Max Spin Ang} {Oxs_TimeDriver::Run Max Spin Ang} {Oxs_TimeDriver::Last time step} {Oxs_TimeDriver::Simulation time}
# Units:                       J                                            {}                                        deg/ns                                 J/s                                  J                               J                      mT                   mT                    mT                    mT                      J                       {}                            {}                          {}                   {}                   {}                   {}                        deg                               deg                                 deg                                s                                 s                
                       0                                            1                                           0                                    0                                   0                               0                       0                    0                     0                     0                      0                        0                             0                           0                     0.99975009371095458  0.019995001874219091  0.0099975009371095457       0                                 0                                   0                                 0                                0                         
                       0                                            7                                           0                                    0                                   0                               0                       0                    0                     0                     0                      0                        1                             1                           0                     0.99975009371095458  0.019995001874219091  0.0099975009371095457       0                                 0                                   0                                 1.25e-11                         1.25e-11                  
                       0                                            13                                          0                                    0                                   0                               0                       0                    0                     0                     0                      0                        2                             2                           0                     0.99975009371095458  0.019995001874219091  0.0099975009371095457       0                                 0                                   0                                 3.75e-11                         5.0000000000000002e-11       
                       0                                            14                                          0                                    0                                   0                               0                       0                    0                     0                     0                      0                        3                             0                           1                     0.99975009371095458  0.019995001874219091  0.0099975009371095457       0                                 0                                   0                                 0                                5.0000000000000002e-11       
                       0                                            20                                          0                                    0                                   0                               0                       0                    0                     0                     0                      0                        4                             1                           1                     0.99975009371095458  0.019995001874219091  0.0099975009371095457       0                                 0                                   0                                 5.0000000000000002e-11              1e-10                     
                       0                                            21                                          0                                    0                                   0                               0                       0                    0                     0                     0                      0                        5                             0                           2                     0.99975009371095458  0.019995001874219091  0.0099975009371095457       0                                 0                                   0                                 0                                1e-10                     
                       0                                            27                                          0                                    0                                   0                               0                       0                    0                     0                     0                      0                        6                             1                           2                     0.99975009371095458  0.019995001874219091  0.0099975009371095457       0                                 0                                   0                                 5.0000000000000002e-11              1.5e-10                   
                       0                                            28                                          0                                    0                                   0                               0                       0                    0                     0                     0                      0                        7                             0                           3                     0.99975009371095458  0.019995001874219091  0.0099975009371095457       0                                 0                                   0                                 0                                1.5e-10                   
                       0                                            34                                          0                                    0                                   0                               0                       0                    0                     0                     0                      0                        8                             1                           3                     0.99975009371095458  0.019995001874219091  0.0099975009371095457       0                                 0                                   0                                 5.0000000000000002e-11              2.0000000000000001e-10       
                       0                                            35                                          0                                    0                                   0                               0                       0                    0                     0                     0                      0                        9                             0                           4                     0.99975009371095458  0.019995001874219091  0.0099975009371095457       0                                 0                                   0                                 0                                2.0000000000000001e-10       
                       0                                            41                                          0                                    0                                   0                               0                       0                    0                     0                     0                      0                        10                            1                           4                     0.99975009371095458  0.019995001874219091  0.0099975009371095457       0                                 0                                   0                                 5.0000000000000002e-11              2.5000000000000002e-10       
# Table End
