# ODT 1.0
# Table Start
# Title: mmArchive Data Table, Wed Jun 16 18:59:35 EDT 2010
# Columns: {Oxs_CGEvolve:evolve:Max mxHxm} {Oxs_CGEvolve:evolve:Total energy} {Oxs_CGEvolve:evolve:Delta E} {Oxs_CGEvolve:evolve:Bracket count} {Oxs_CGEvolve:evolve:Line min count} {Oxs_CGEvolve:evolve:Cycle count} {Oxs_CGEvolve:evolve:Cycle sub count} {Oxs_CGEvolve:evolve:Energy calc count} Oxs_UniaxialAnisotropy::Energy Oxs_UniformExchange::Energy {Oxs_UniformExchange::Max Spin Ang} {Oxs_UniformExchange::Stage Max Spin Ang} {Oxs_UniformExchange::Run Max Spin Ang} Oxs_MinDriver::Iteration {Oxs_MinDriver::Stage iteration} Oxs_MinDriver::Stage Oxs_MinDriver::mx    Oxs_MinDriver::my    Oxs_MinDriver::mz   
# Units:                 A/m                               J                                J                               {}                                   {}                                 {}                                  {}                                     {}                                  J                             J                              deg                                    deg                                      deg                              {}                           {}                         {}                 {}                   {}                   {}           
                 3307775.4729890358                2.3571672454411409e-16             2.3571672454411409e-16              0                                    0                                  1                                   1                                      1                                   2.0106845496275459e-16          3.4648269581359489e-17             23.520791441085514                     23.520791441085514                       23.520791441085514               0                            0                          0                    0.79527087153015352  0.53409835707818332  0.26802340946383862
                 3299399.5752043268                2.3548682393707662e-16            -2.299006070374486e-19              1                                    0                                  1                                   1                                      2                                   2.010315079216102e-16          3.445531601546641e-17             23.436772553916967                     23.520791441085514                       23.520791441085514               1                            1                          0                    0.79528946000239842  0.53410956071130389  0.26803032500794266
                 3240613.4550039009                2.3389661401440619e-16            -1.5902099226704385e-18              2                                    0                                  1                                   1                                      3                                   2.0077288094097543e-16          3.3123733073430741e-17             22.848781599337233                     23.520791441085514                       23.520791441085514               2                            2                          0                    0.79541789859774503  0.53418683377896392  0.26807815793516071
                 2761387.2843569536                2.2238422768987025e-16            -1.1512386324535911e-17              3                                    0                                  1                                   1                                      4                                   1.9870537340938845e-16          2.3678854280481811e-17             19.778239382285314                     23.520791441085514                       23.520791441085514               3                            3                          0                    0.79633915456411519  0.53473238853034555  0.26842450770046589
                 1532897.1122847251                2.0328150284095364e-16            -1.9102724848916621e-17              4                                    0                                  1                                   1                                      5                                   1.9365186589617802e-16          9.6296369447756294e-18             15.524666337283742                     23.520791441085514                       23.520791441085514               4                            4                          0                    0.79779860519567392  0.53552774347946452  0.26900314390052021
                 1524720.2839265098                2.0318514351522222e-16            -9.6359325731430148e-20              5                                    0                                  2                                   0                                      6                                   1.9360809784295632e-16          9.5770456722659079e-18             15.522632354857082                     23.520791441085514                       23.520791441085514               5                            5                          0                    0.79780630891962534  0.53553002126740712  0.26900689332973965
                 1467404.2674418357                2.0252295843414748e-16            -6.6218508107473333e-19              6                                    0                                  2                                   0                                      7                                   1.9330170065331455e-16          9.2212577808329326e-18             15.508430735313521                     23.520791441085514                       23.520791441085514               6                            6                          0                    0.79785870046143148  0.53554492323262382  0.26903261751768426
                 1004780.5256064587                1.9800454827935122e-16            -4.518410154796276e-18              7                                    0                                  2                                   0                                      8                                   1.9085072113624081e-16          7.1538271431103987e-18             15.397124411999235                     23.520791441085514                       23.520791441085514               7                            7                          0                    0.79818098419496197  0.53559857791594079  0.26920557722830724
                 663898.58838977106                1.9280567671352341e-16            -5.198871565827805e-18              8                                    0                                  2                                   0                                      9                                   1.8484561468146044e-16          7.9600620320629724e-18             15.78922732879907                      23.520791441085514                       23.520791441085514               8                            8                          0                    0.79823912031094446  0.53523796186698347  0.26938466631965802
                 659203.48935588216                1.9276075115565494e-16            -4.4925557868456817e-20              9                                    0                                  3                                   0                                      10                                  1.8482081761460844e-16          7.9399335410465178e-18             15.780645559296957                     23.520791441085514                       23.520791441085514               9                            9                          0                    0.79824089723855884  0.53523299400708579  0.26938763888677808
                 626332.75541535986                1.9245754987087727e-16            -3.0320128477767672e-19              10                                   0                                  3                                   0                                      11                                  1.846472747322594e-16          7.8102751386178639e-18             15.720649927707091                     23.520791441085514                       23.520791441085514               10                           10                         0                    0.79825167328182223  0.53519710221643568  0.26940788556800299
# Table End
