# ODT 1.0
# Table Start
# Title: mmArchive Data Table, Wed Jun 16 18:59:46 EDT 2010
# Columns: {Oxs_CGEvolve:evolve:Max mxHxm} {Oxs_CGEvolve:evolve:Total energy} {Oxs_CGEvolve:evolve:Delta E} {Oxs_CGEvolve:evolve:Bracket count} {Oxs_CGEvolve:evolve:Line min count} {Oxs_CGEvolve:evolve:Cycle count} {Oxs_CGEvolve:evolve:Cycle sub count} {Oxs_CGEvolve:evolve:Energy calc count} Oxs_UniaxialAnisotropy::Energy Oxs_UniformExchange::Energy {Oxs_UniformExchange::Max Spin Ang} {Oxs_UniformExchange::Stage Max Spin Ang} {Oxs_UniformExchange::Run Max Spin Ang} Oxs_MinDriver::Iteration {Oxs_MinDriver::Stage iteration} Oxs_MinDriver::Stage Oxs_MinDriver::mx    Oxs_MinDriver::my    Oxs_MinDriver::mz   
# Units:                 A/m                               J                                J                               {}                                   {}                                 {}                                  {}                                     {}                                  J                             J                              deg                                    deg                                      deg                              {}                           {}                         {}                 {}                   {}                   {}           
                 2959187.9640120766                2.43403776159945e-17             2.43403776159945e-17              0                                    0                                  1                                   1                                      1                                   2.0809290043887264e-17          3.5310875721072373e-18             23.832877308341594                     23.832877308341594                       23.832877308341594               0                            0                          0                    0.79613716561204562  0.53103523224032323  0.27019313220247032
                 2951351.0451026619                2.431421425902937e-17            -2.6163356965129783e-20              1                                    0                                  1                                   1                                      2                                   2.0804468260041866e-17          3.5097459989875045e-18             23.756726306708323                     23.832877308341594                       23.832877308341594               1                            1                          0                    0.79615543589164783  0.5310520251202554   0.27020202325718956
                 2896321.8708835104                2.4133349640368129e-17            -1.8086461866124233e-19              2                                    0                                  1                                   1                                      3                                   2.0770713533559368e-17          3.3626361068087601e-18             23.22369587870854                      23.832877308341594                       23.832877308341594               2                            2                          0                    0.79628122347338171  0.53116811890395665  0.27026353306116302
                 2446180.6246129153                2.2830965826242171e-17            -1.3023838141259569e-18              3                                    0                                  1                                   1                                      4                                   2.050076864745571e-17          2.330197178786463e-18             19.019458784850812                     23.832877308341594                       23.832877308341594               3                            3                          0                    0.79715442893518706  0.53200506430971228  0.27070968819561275
                 1283159.8891572233                2.0731852786173865e-17            -2.0991130400683062e-18              4                                    0                                  1                                   1                                      5                                   1.9841503242674433e-17          8.9034954349943284e-19             15.146218682559363                     23.832877308341594                       23.832877308341594               4                            4                          0                    0.79829049372696348  0.5333743973241486   0.27146101236016967
                 1276117.6270423615                2.07215083075113e-17            -1.0344478662565913e-20              5                                    0                                  2                                   0                                      6                                   1.9835786297602877e-17          8.8572200990842007e-19             15.138879177498                        23.832877308341594                       23.832877308341594               5                            5                          0                    0.79829179624972557  0.53338385245818676  0.27146699267157764
                 1226734.2365585307                2.0650521947149226e-17            -7.098636036207392e-20              6                                    0                                  2                                   0                                      7                                   1.9795765977991023e-17          8.5475596915820079e-19             15.087501061350475                     23.832877308341594                       23.832877308341594               6                            6                          0                    0.79829897101808811  0.53344871678203398  0.27150818644683583
                 826787.98455569358                2.0172735621841044e-17            -4.7778632530818131e-19              7                                    0                                  2                                   0                                      8                                   1.9475754586359032e-17          6.9698103548201246e-19             14.676407027346794                     23.832877308341594                       23.832877308341594               7                            7                          0                    0.79823382764997164  0.5338844732328728   0.27179568161051015
                 575687.95837774128                1.9682418600378437e-17            -4.9031702146260623e-19              8                                    0                                  2                                   0                                      9                                   1.869412151574026e-17          9.8829708463817891e-19             16.349834526871422                     23.832877308341594                       23.832877308341594               8                            8                          0                    0.79714468114069248  0.5343332379500858   0.27218814565068705
                 569918.95573389565                1.9676095636510418e-17            -6.3229638680196405e-21              9                                    0                                  3                                   0                                      10                                  1.8692007393066836e-17          9.8408824344358229e-19             16.342384980586228                     23.832877308341594                       23.832877308341594               9                            9                          0                    0.79713483297583421  0.53434298810217729  0.27219619252230576
                 529560.30450361688                1.9633770433319863e-17            -4.2325203190554177e-20              10                                   0                                  3                                   0                                      11                                  1.8677226461884655e-17          9.5654397143520947e-19             16.29112681049876                      23.832877308341594                       23.832877308341594               10                           10                         0                    0.7970632350834721   0.53440943479666314  0.27225162467943503
# Table End
