# ODT 1.0
# Table Start
# Title: mmArchive Data Table, Wed Jun 16 18:59:48 EDT 2010
# Columns: {Oxs_CGEvolve:evolve:Max mxHxm} {Oxs_CGEvolve:evolve:Total energy} {Oxs_CGEvolve:evolve:Delta E} {Oxs_CGEvolve:evolve:Bracket count} {Oxs_CGEvolve:evolve:Line min count} {Oxs_CGEvolve:evolve:Cycle count} {Oxs_CGEvolve:evolve:Cycle sub count} {Oxs_CGEvolve:evolve:Energy calc count} Oxs_UniaxialAnisotropy::Energy Oxs_UniformExchange::Energy {Oxs_UniformExchange::Max Spin Ang} {Oxs_UniformExchange::Stage Max Spin Ang} {Oxs_UniformExchange::Run Max Spin Ang} Oxs_MinDriver::Iteration {Oxs_MinDriver::Stage iteration} Oxs_MinDriver::Stage Oxs_MinDriver::mx    Oxs_MinDriver::my    Oxs_MinDriver::mz   
# Units:                 A/m                               J                                J                               {}                                   {}                                 {}                                  {}                                     {}                                  J                             J                              deg                                    deg                                      deg                              {}                           {}                         {}                 {}                   {}                   {}           
                 3373375.5312064057                5.3082022229117606e-17             5.3082022229117606e-17              0                                    0                                  1                                   1                                      1                                   4.5002656800831088e-17          8.0793654282865127e-18             23.832877308341594                     23.832877308341594                       23.832877308341594               0                            0                          0                    0.79409390110715505  0.53520648799166626  0.2681128426134996 
                 3364579.5951026082                5.3031051431556773e-17            -5.0970797560830467e-20              1                                    0                                  1                                   1                                      2                                   4.499455258034359e-17          8.0364988512131859e-18             23.762606376117947                     23.832877308341594                       23.832877308341594               1                            1                          0                    0.79411023229740918  0.5352196666258292   0.26812211306334865
                 3302831.1496071806                5.2678261814664885e-17            -3.5278961689188773e-19              2                                    0                                  1                                   1                                      3                                   4.4937813509013904e-17          7.7404483056509791e-18             23.270714344901222                     23.832877308341594                       23.832877308341594               2                            2                          0                    0.79422296819079385  0.53531082855231171  0.26818646395068807
                 2798702.8346972098                5.0109733777230604e-17            -2.5685280374342834e-18              3                                    0                                  1                                   1                                      4                                   4.4483593959391816e-17          5.6261398178387829e-18             19.630697664161811                     23.832877308341594                       23.832877308341594               3                            3                          0                    0.7950248345671791   0.53597148799005345  0.26866701701129253
                 1504792.637434972                 4.5726652841266859e-17            -4.3830809359637402e-18              4                                    0                                  1                                   1                                      5                                   4.3368420893777832e-17          2.3582319474890279e-18             15.027452865523591                     23.832877308341594                       23.832877308341594               4                            4                          0                    0.79623801961892127  0.53708010662059058  0.2695906772931147 
                 1495405.3167912855                4.5701757296724467e-17            -2.4895544542394273e-20              5                                    0                                  2                                   0                                      6                                   4.3357641278847463e-17          2.3441160178770068e-18             15.023885866725594                     23.832877308341594                       23.832877308341594               5                            5                          0                    0.79624188475426638  0.53708789885499242  0.2696004486523309 
                 1429612.2362981413                4.5530710789589713e-17            -1.7104650713475377e-19              6                                    0                                  2                                   0                                      7                                   4.3282165390952262e-17          2.248545398637449e-18             14.999429691949405                     23.832877308341594                       23.832877308341594               6                            6                          0                    0.79626719100494558  0.53714125239352972  0.26966825040549436
                 953630.1563411816                 4.4366023936137735e-17            -1.1646868534519798e-18              7                                    0                                  2                                   0                                      8                                   4.2677622537348614e-17          1.6884013987891214e-18             14.836586652022174                     23.832877308341594                       23.832877308341594               7                            7                          0                    0.79635931650789604  0.53749298896730913  0.27017295096011068
                 693270.70337333356                4.3048426899071102e-17            -1.3175970370666298e-18              8                                    0                                  2                                   0                                      9                                   4.1192003216924513e-17          1.856423682146591e-18             14.755218967497528                     23.832877308341594                       23.832877308341594               8                            8                          0                    0.79575064347894087  0.53779298870832537  0.27113091671237055
                 691524.10156024131                4.303682021329494e-17            -1.1606685776161953e-20              9                                    0                                  3                                   0                                      10                                  4.1185592335092063e-17          1.8512278782028784e-18             14.791840793800484                     23.832877308341594                       23.832877308341594               9                            9                          0                    0.79574143136959108  0.53779904748843854  0.27114612504886831
                 679270.83365640661                4.2958288768329219e-17            -7.8531444965725001e-20              10                                   0                                  3                                   0                                      11                                  4.1140716025500406e-17          1.8175727428288096e-18             15.048400783179238                     23.832877308341594                       23.832877308341594               10                           10                         0                    0.79567516833390506  0.53784025654871892  0.27125197475630713
# Table End
