# ODT 1.0
# Table Start
# Title: mmArchive Data Table, Wed Jun 16 18:59:48 EDT 2010
# Columns: {Oxs_CGEvolve:evolve:Max mxHxm} {Oxs_CGEvolve:evolve:Total energy} {Oxs_CGEvolve:evolve:Delta E} {Oxs_CGEvolve:evolve:Bracket count} {Oxs_CGEvolve:evolve:Line min count} {Oxs_CGEvolve:evolve:Cycle count} {Oxs_CGEvolve:evolve:Cycle sub count} {Oxs_CGEvolve:evolve:Energy calc count} Oxs_UniaxialAnisotropy::Energy Oxs_UniformExchange::Energy {Oxs_UniformExchange::Max Spin Ang} {Oxs_UniformExchange::Stage Max Spin Ang} {Oxs_UniformExchange::Run Max Spin Ang} Oxs_MinDriver::Iteration {Oxs_MinDriver::Stage iteration} Oxs_MinDriver::Stage Oxs_MinDriver::mx    Oxs_MinDriver::my    Oxs_MinDriver::mz   
# Units:                 A/m                               J                                J                               {}                                   {}                                 {}                                  {}                                     {}                                  J                             J                              deg                                    deg                                      deg                              {}                           {}                         {}                 {}                   {}                   {}           
                 3091583.7017436824                6.1425561437278875e-17             6.1425561437278875e-17              0                                    0                                  1                                   1                                      1                                   5.1450469324484465e-17          9.9750921127944147e-18             23.832877308341594                     23.832877308341594                       23.832877308341594               0                            0                          0                    0.79415430728570313  0.53486364887231763  0.26863907773018231
                 3080855.4097708887                6.1357981627393035e-17            -6.7579809885840184e-20              1                                    0                                  1                                   1                                      2                                   5.144057999508643e-17          9.9174016323066072e-18             23.760682610777163                     23.832877308341594                       23.832877308341594               1                            1                          0                    0.79417509273094089  0.53487568140690367  0.26864655947969912
                 3005602.7291031484                6.0890789681113217e-17            -4.6719194627981994e-19              2                                    0                                  1                                   1                                      3                                   5.1371370525770903e-17          9.5194191553423126e-18             23.255356179206885                     23.832877308341594                       23.832877308341594               2                            2                          0                    0.79431868288885066  0.5349585958193569   0.26869827787328238
                 2439066.2815369731                5.7525050727513053e-17            -3.3657389536001683e-18              3                                    0                                  1                                   1                                      4                                   5.0819110191250414e-17          6.7059405362626317e-18             19.217700952125412                     23.832877308341594                       23.832877308341594               3                            3                          0                    0.79534673060438232  0.53553916192641315  0.26907074385251478
                 1253525.7231831334                5.2082522775781639e-17            -5.4425279517314104e-18              4                                    0                                  1                                   1                                      5                                   4.9478150988614488e-17          2.6043717871671531e-18             14.665866425613919                     23.832877308341594                       23.832877308341594               4                            4                          0                    0.79695881107982758  0.5363454143279619   0.26967518853556777
                 1247125.1943029249                5.2053061646390248e-17            -2.9461129391392474e-20              5                                    0                                  2                                   0                                      6                                   4.9464826055096291e-17          2.5882355912939526e-18             14.631936629115023                     23.832877308341594                       23.832877308341594               5                            5                          0                    0.79696882261640389  0.53634621954319017  0.26967942294663239
                 1207767.3652749031                5.1851152620708663e-17            -2.0190902568158211e-19              6                                    0                                  2                                   0                                      7                                   4.9371551359183772e-17          2.4796012615248896e-18             14.394382800980853                     23.832877308341594                       23.832877308341594               6                            6                          0                    0.79703682857183011  0.5363504456166921   0.26970835944873778
                 913169.81451893039                5.0508892369782517e-17            -1.3422602509261486e-18              7                                    0                                  2                                   0                                      8                                   4.8625965297282528e-17          1.8829270724999858e-18             13.186970334519206                     23.832877308341594                       23.832877308341594               7                            7                          0                    0.79744994641774569  0.5362955749393219   0.26989547270137637
                 666221.56351385964                4.9280735114335792e-17            -1.2281572554467198e-18              8                                    0                                  2                                   0                                      9                                   4.6807260139854263e-17          2.4734749744815325e-18             14.613083154667537                     23.832877308341594                       23.832877308341594               8                            8                          0                    0.79747487957433105  0.53549508971477355  0.27002166205589057
                 681482.75002760324                4.9270272255825996e-17            -1.0462858509801407e-20              8                                    1                                  2                                   0                                      10                                  4.6958619390674246e-17          2.3116528651517486e-18             13.954196333481665                     23.832877308341594                       23.832877308341594               9                            9                          0                    0.79752697639058023  0.53559840220462573  0.27002923518263205
                 479520.68592386768                4.8374159595371475e-17            -8.9611266045451772e-19              9                                    1                                  3                                   1                                      11                                  4.5327976600365788e-17          3.0461829950056902e-18             16.982091225360023                     23.832877308341594                       23.832877308341594               10                           10                         0                    0.79717661321435118  0.53318637047797468  0.27022712546966948
# Table End
