# ODT 1.0
# Table Start
# Title: mmArchive Data Table, Wed Jun 16 18:59:23 EDT 2010
# Columns: {Oxs_CGEvolve:evolve:Max mxHxm} {Oxs_CGEvolve:evolve:Total energy} {Oxs_CGEvolve:evolve:Delta E} {Oxs_CGEvolve:evolve:Bracket count} {Oxs_CGEvolve:evolve:Line min count} {Oxs_CGEvolve:evolve:Cycle count} {Oxs_CGEvolve:evolve:Cycle sub count} {Oxs_CGEvolve:evolve:Energy calc count} Oxs_UniaxialAnisotropy::Energy Oxs_UniformExchange::Energy {Oxs_UniformExchange::Max Spin Ang} {Oxs_UniformExchange::Stage Max Spin Ang} {Oxs_UniformExchange::Run Max Spin Ang} Oxs_MinDriver::Iteration {Oxs_MinDriver::Stage iteration} Oxs_MinDriver::Stage Oxs_MinDriver::mx    Oxs_MinDriver::my    Oxs_MinDriver::mz   
# Units:                 A/m                               J                                J                               {}                                   {}                                 {}                                  {}                                     {}                                  J                             J                              deg                                    deg                                      deg                              {}                           {}                         {}                 {}                   {}                   {}           
                 2811099.7808932476                4.3680318996567813e-17             4.3680318996567813e-17              0                                    0                                  1                                   1                                      1                                   3.7579308042172366e-17          6.1010109543954451e-18             22.907486115406446                     22.907486115406446                       22.907486115406446               0                            0                          0                    0.79230871233444589  0.53684989160260288  0.27009305471543277
                 2800845.1930238758                4.363611807947241e-17            -4.4200917095403726e-20              1                                    0                                  1                                   1                                      2                                   3.757136007159009e-17          6.0647580078823151e-18             22.850844174545532                     22.907486115406446                       22.907486115406446               1                            1                          0                    0.79232894050104186  0.53686496451834942  0.2700964369408822 
                 2728912.512771972                 4.3330643600424621e-17            -3.054744790477899e-19              2                                    0                                  1                                   1                                      3                                   3.7515703321144669e-17          5.8149402792799458e-18             22.454351445618883                     22.907486115406446                       22.907486115406446               2                            2                          0                    0.79246851700826892  0.53696907800998417  0.27011941504895298
                 2157833.3891152428                4.1136055465377031e-17            -2.1945881350475851e-18              3                                    0                                  1                                   1                                      4                                   3.7069469311844308e-17          4.0665861535327242e-18             19.283534383641474                     22.907486115406446                       22.907486115406446               3                            3                          0                    0.79345738982899694  0.53771386827423517  0.27025925057450439
                 1130402.2760681917                3.763923274717302e-17            -3.4968227182040119e-18              4                                    0                                  1                                   1                                      5                                   3.59700779210374e-17          1.6691548261356207e-18             17.16396487035043                      22.907486115406446                       22.907486115406446               4                            4                          0                    0.79492060658407127  0.53888221557914739  0.27027077274021483
                 1126836.4332127494                3.7619509556137351e-17            -1.9723191035667143e-20              5                                    0                                  2                                   0                                      6                                   3.5959265150649888e-17          1.6602444054874652e-18             17.126909363928178                     22.907486115406446                       22.907486115406446               5                            5                          0                    0.79492882506091378  0.53889029902753394  0.27026440523651146
                 1101820.9875205003                3.7484139160217212e-17            -1.3537039592014231e-19              6                                    0                                  2                                   0                                      7                                   3.588353071207074e-17          1.6006084481464687e-18             16.867541169849233                     22.907486115406446                       22.907486115406446               6                            6                          0                    0.79498409343314702  0.5389453277816324   0.27021905744597596
                 898673.24073363177                3.6571487238086857e-17            -9.1265192213035723e-19              7                                    0                                  2                                   0                                      8                                   3.5275377451504915e-17          1.2961097865819406e-18             14.794559855447895                     22.907486115406446                       22.907486115406446               7                            7                          0                    0.79528346430890018  0.53928780221916395  0.26980772237551204
                 737378.14126224979                3.5622466274739799e-17            -9.4902096334705414e-19              8                                    0                                  2                                   0                                      9                                   3.3772268129708325e-17          1.8501981450314775e-18             16.730599760658436                     22.907486115406446                       22.907486115406446               8                            8                          0                    0.7949363417100157   0.5393999983509471   0.26843413240728792
                 735120.06967018649                3.5614147174284059e-17            -8.3191004557423319e-21              9                                    0                                  3                                   0                                      10                                  3.3769451844777517e-17          1.844695329506538e-18             16.74921437748279                      22.907486115406446                       22.907486115406446               9                            9                          0                    0.79493764202412454  0.53940463681054218  0.26842027351657266
                 719254.9200450324                 3.5557851317573576e-17            -5.6295856710482725e-20              10                                   0                                  3                                   0                                      11                                  3.3749737296964149e-17          1.8081140206094285e-18             16.879679186507484                     22.907486115406446                       22.907486115406446               10                           10                         0                    0.79494527573885987  0.53943610129360653  0.26832276663016669
# Table End
