# ODT 1.0
# Table Start
# Title: mmArchive Data Table, Wed Jun 16 18:59:38 EDT 2010
# Columns: {Oxs_CGEvolve:evolve:Max mxHxm} {Oxs_CGEvolve:evolve:Total energy} {Oxs_CGEvolve:evolve:Delta E} {Oxs_CGEvolve:evolve:Bracket count} {Oxs_CGEvolve:evolve:Line min count} {Oxs_CGEvolve:evolve:Cycle count} {Oxs_CGEvolve:evolve:Cycle sub count} {Oxs_CGEvolve:evolve:Energy calc count} Oxs_UniaxialAnisotropy::Energy Oxs_UniformExchange::Energy {Oxs_UniformExchange::Max Spin Ang} {Oxs_UniformExchange::Stage Max Spin Ang} {Oxs_UniformExchange::Run Max Spin Ang} Oxs_MinDriver::Iteration {Oxs_MinDriver::Stage iteration} Oxs_MinDriver::Stage Oxs_MinDriver::mx    Oxs_MinDriver::my    Oxs_MinDriver::mz   
# Units:                 A/m                               J                                J                               {}                                   {}                                 {}                                  {}                                     {}                                  J                             J                              deg                                    deg                                      deg                              {}                           {}                         {}                 {}                   {}                   {}           
                 406983.5836545591                 9.6337423331693867e-20             9.6337423331693867e-20              0                                    0                                  1                                   1                                      1                                   9.6057357447060449e-20          2.8006588463340696e-22             5.74733545470556                       5.74733545470556                         5.74733545470556                 0                            0                          0                    0.74707730126211425  0.59230320297629513  0.29755505355776829
                 408109.79267580272                9.6280572458413642e-20            -5.6850873280224448e-23              1                                    0                                  1                                   1                                      2                                   9.6000944567267817e-20          2.7962789114582183e-22             5.7428358140072078                     5.74733545470556                         5.74733545470556                 1                            1                          0                    0.74674212846872279  0.59240930662968116  0.298191089595508  
                 411481.60815637658                9.6109394448478328e-20            -1.7117800993531181e-22              2                                    0                                  1                                   1                                      3                                   9.5831017292372228e-20          2.783771561060919e-22             5.729967244741041                      5.74733545470556                         5.74733545470556                 2                            2                          0                    0.74573402990781157  0.59272559079643594  0.30009810749705501
                 424863.32655643608                9.5415411030892603e-20            -6.9398341758571948e-22              3                                    0                                  1                                   1                                      4                                   9.5141087638266296e-20          2.7432339262631161e-22             5.6880594381495522                     5.74733545470556                         5.74733545470556                 3                            3                          0                    0.74166326066597577  0.59396020360337409  0.30770929091150079
                 476504.648651489                  9.2498476311303484e-20            -2.9169347195891271e-21              4                                    0                                  1                                   1                                      5                                   9.222519616850002e-20          2.7328014280346104e-22             5.6772244367092384                     5.74733545470556                         5.74733545470556                 4                            4                          0                    0.72478796197957007  0.59840353696136739  0.33785071114257598
                 603877.92091555241                8.3089384277680356e-20            -9.4090920336231215e-21              5                                    0                                  1                                   1                                      6                                   8.2688146328990823e-20          4.0123794868953094e-22             6.8804418809549137                     6.8804418809549137                       6.8804418809549137               5                            5                          0                    0.67166520502258831  0.60666460855130355  0.4209786831985472 
                 604602.61121259211                8.3020981849777049e-20            -6.8402427903306765e-23              6                                    0                                  2                                   0                                      7                                   8.261670099037664e-20          4.0428085940041157e-22             6.9065140876361362                     6.9065140876361362                       6.9065140876361362               6                            6                          0                    0.67128605027645105  0.60670555813668692  0.42149168778467228
                 606764.58710538573                8.2815342001647321e-20            -2.0563984812973252e-22              7                                    0                                  2                                   0                                      8                                   8.2401855378747893e-20          4.1348662289942693e-22             6.9848010401210949                     6.9848010401210949                       6.9848010401210949               7                            7                          0                    0.67014676715324772  0.60682669624195162  0.42302942429237   
                 615229.29891918111                8.1986431446411549e-20            -8.2891055523577104e-22              8                                    0                                  2                                   0                                      9                                   8.1534970716641883e-20          4.514607297696626e-22             7.2989104521127359                     7.2989104521127359                       7.2989104521127359               8                            8                          0                    0.66556269252966438  0.60728554303802817  0.42916081004431389
                 646055.25583938102                7.857811376174346e-20            -3.4083176846680824e-21              9                                    0                                  2                                   0                                      10                                  7.7956679623410999e-20          6.2143413833246792e-22             8.5655726554969114                     8.5655726554969114                       8.5655726554969114               9                            9                          0                    0.64681759846417097  0.60870756851390639  0.45334878108870375
                 705708.83110740583                6.8217070139506831e-20            -1.0361043622236632e-20              10                                   0                                  2                                   0                                      11                                  6.6960108462313916e-20          1.2569616771929118e-21             12.193693318400332                     12.193693318400332                       12.193693318400332               10                           10                         0                    0.58993653071701002  0.60912435500648898  0.5192898848960622 
# Table End
