# ODT 1.0
# Table Start
# Title: mmArchive Data Table, Wed Jun 16 18:59:41 EDT 2010
# Columns: {Oxs_CGEvolve:evolve:Max mxHxm} {Oxs_CGEvolve:evolve:Total energy} {Oxs_CGEvolve:evolve:Delta E} {Oxs_CGEvolve:evolve:Bracket count} {Oxs_CGEvolve:evolve:Line min count} {Oxs_CGEvolve:evolve:Cycle count} {Oxs_CGEvolve:evolve:Cycle sub count} {Oxs_CGEvolve:evolve:Energy calc count} Oxs_UniaxialAnisotropy::Energy Oxs_UniformExchange::Energy {Oxs_UniformExchange::Max Spin Ang} {Oxs_UniformExchange::Stage Max Spin Ang} {Oxs_UniformExchange::Run Max Spin Ang} Oxs_MinDriver::Iteration {Oxs_MinDriver::Stage iteration} Oxs_MinDriver::Stage Oxs_MinDriver::mx    Oxs_MinDriver::my    Oxs_MinDriver::mz   
# Units:                 A/m                               J                                J                               {}                                   {}                                 {}                                  {}                                     {}                                  J                             J                              deg                                    deg                                      deg                              {}                           {}                         {}                 {}                   {}                   {}           
                 2305358.3267480209                1.6228475240502543e-17             1.6228475240502543e-17              0                                    0                                  1                                   1                                      1                                   1.4401597441223345e-17          1.8268777992791982e-18             23.81470529609118                      23.81470529609118                        23.81470529609118                0                            0                          0                    0.79503791808771862  0.53330014856047514  0.26922685862777346
                 2299069.563773708                 1.6213821398065098e-17            -1.4653842437443685e-20              1                                    0                                  1                                   1                                      2                                   1.4397470103150167e-17          1.8163512949149305e-18             23.757959511137827                     23.81470529609118                        23.81470529609118                1                            1                          0                    0.79505598607186789  0.53331763666624188  0.26923133209449557
                 2254906.6295743939                1.6112401800608966e-17            -1.0141959745613109e-19              2                                    0                                  1                                   1                                      3                                   1.4368568733128057e-17          1.7438330674809098e-18             23.36075146967784                      23.81470529609118                        23.81470529609118                2                            2                          0                    0.79518025049012431  0.53343853469121116  0.26926188294541864
                 1893410.4685220891                1.5374529588278263e-17            -7.3787221233070445e-19              3                                    0                                  1                                   1                                      4                                   1.4136939577209594e-17          1.2375900110686697e-18             20.185208240284531                     23.81470529609118                        23.81470529609118                3                            3                          0                    0.79603464047113492  0.53430979567685477  0.26945813740473407
                 994190.86449546251                1.412249230515747e-17            -1.2520372831207916e-18              4                                    0                                  1                                   1                                      5                                   1.3567737089096497e-17          5.5475521606097307e-19             14.132887570423122                     23.81470529609118                        23.81470529609118                4                            4                          0                    0.79707740966145291  0.53572840026340807  0.26957738205695136
                 992065.63962763164                1.4114946746319511e-17            -7.5455588379595339e-21              5                                    0                                  2                                   0                                      6                                   1.3562205841083561e-17          5.5274090523595028e-19             14.129184849519863                     23.81470529609118                        23.81470529609118                5                            5                          0                    0.79707717536378109  0.53573912058261697  0.26957543556358876
                 977123.96024169261                1.4063069944574105e-17            -5.1876801745405432e-20              6                                    0                                  2                                   0                                      7                                   1.3523477962129164e-17          5.3959198244494129e-19             14.103263560587672                     23.81470529609118                        23.81470529609118                6                            6                          0                    0.79707287108364111  0.53581234501926578  0.26956089604229372
                 853650.16654375102                1.3707780857780134e-17            -3.5528908679397175e-19              7                                    0                                  2                                   0                                      8                                   1.3213437931149145e-17          4.9434292663098795e-19             14.759803548581035                     23.81470529609118                        23.81470529609118                7                            7                          0                    0.7968705730087331   0.53628371162005162  0.26938714903268979
                 575060.91653157247                1.3290073490065993e-17            -4.177073677141416e-19              8                                    0                                  2                                   0                                      9                                   1.2455911890273139e-17          8.341615997928544e-19             19.259918066853665                     23.81470529609118                        23.81470529609118                8                            8                          0                    0.79510699615082625  0.53658599112426564  0.2685298891051453 
                 569311.26497446117                1.3286598194481114e-17            -3.4752955848782942e-21              9                                    0                                  3                                   0                                      10                                  1.2453884170117044e-17          8.3271402436406989e-19             19.211292288169943                     23.81470529609118                        23.81470529609118                9                            9                          0                    0.7950951565343195   0.53659389221810849  0.26852710106032834
                 549668.56937406817                1.3262911177985849e-17            -2.3687016495265116e-20              10                                   0                                  3                                   0                                      11                                  1.2439696014851383e-17          8.2321516313446639e-19             19.12397381064752                      23.81470529609118                        23.81470529609118                10                           10                         0                    0.79501015081166981  0.53664776114804136  0.26850686754168351
# Table End
