# ODT 1.0
# Table Start
# Title: mmArchive Data Table, Wed Jun 16 18:59:22 EDT 2010
# Columns: {Oxs_CGEvolve:evolve:Max mxHxm} {Oxs_CGEvolve:evolve:Total energy} {Oxs_CGEvolve:evolve:Delta E} {Oxs_CGEvolve:evolve:Bracket count} {Oxs_CGEvolve:evolve:Line min count} {Oxs_CGEvolve:evolve:Cycle count} {Oxs_CGEvolve:evolve:Cycle sub count} {Oxs_CGEvolve:evolve:Energy calc count} Oxs_UniaxialAnisotropy::Energy Oxs_UniformExchange::Energy {Oxs_UniformExchange::Max Spin Ang} {Oxs_UniformExchange::Stage Max Spin Ang} {Oxs_UniformExchange::Run Max Spin Ang} Oxs_MinDriver::Iteration {Oxs_MinDriver::Stage iteration} Oxs_MinDriver::Stage Oxs_MinDriver::mx    Oxs_MinDriver::my    Oxs_MinDriver::mz   
# Units:                 A/m                               J                                J                               {}                                   {}                                 {}                                  {}                                     {}                                  J                             J                              deg                                    deg                                      deg                              {}                           {}                         {}                 {}                   {}                   {}           
                 2952635.492725702                 2.9648792674829326e-17             2.9648792674829326e-17              0                                    0                                  1                                   1                                      1                                   2.5821004543496105e-17          3.8277881313332199e-18             21.847422672350863                     21.847422672350863                       21.847422672350863               0                            0                          0                    0.79519853034700616  0.53249481336726667  0.27047944291912862
                 2943199.0819851863                2.9623002415019524e-17            -2.579025980979746e-20              1                                    0                                  1                                   1                                      2                                   2.5815417568735413e-17          3.8075848462841125e-18             21.823954917570056                     21.847422672350863                       21.847422672350863               1                            1                          0                    0.79521555630193708  0.53250433483397064  0.27049002794792903
                 2876998.8679656936                2.944451342576955e-17            -1.7848898924997407e-19              2                                    0                                  1                                   1                                      3                                   2.5776319824850603e-17          3.6681936009189482e-18             21.659891576764043                     21.847422672350863                       21.847422672350863               2                            2                          0                    0.79533311249558059  0.5325698561179355   0.27056355976050889
                 2339216.9952071672                2.8146074582002497e-17            -1.2984388437670578e-18              3                                    0                                  1                                   1                                      4                                   2.5464435256036357e-17          2.681639325966137e-18             20.361764029295635                     21.847422672350863                       21.847422672350863               3                            3                          0                    0.79617068620039522  0.53302305678521122  0.27111620570320544
                 1243505.3966568557                2.5939956616823782e-17            -2.2061179651787115e-18              4                                    0                                  1                                   1                                      5                                   2.470702435812778e-17          1.2329322586960032e-18             17.302092585865513                     21.847422672350863                       21.847422672350863               4                            4                          0                    0.79744728305698487  0.53360795537200856  0.27220692586498396
                 1238204.5831792161                2.5925962492489548e-17            -1.3994124334235977e-20              5                                    0                                  2                                   0                                      6                                   2.4699059382765355e-17          1.2269031097241903e-18             17.273829421291129                     21.847422672350863                       21.847422672350863               5                            5                          0                    0.79745348106004821  0.53360812772289878  0.27221969244127475
                 1204374.1845389754                2.5829761369384532e-17            -9.6201123105013487e-20              6                                    0                                  2                                   0                                      7                                   2.4643318506993628e-17          1.1864428623909046e-18             17.076736833859833                     21.847422672350863                       21.847422672350863               6                            6                          0                    0.79749474328429593  0.53360789527510843  0.27230832600007548
                 984398.26474123634                2.5171411485056692e-17            -6.5834988432784129e-19              7                                    0                                  2                                   0                                      8                                   2.4198682390839539e-17          9.7272909421715129e-19             15.552868014316568                     21.847422672350863                       21.847422672350863               7                            7                          0                    0.79769080625829625  0.5335157244742369   0.27297108636953116
                 529456.63396099315                2.4399233672315488e-17            -7.7217781274120469e-19              8                                    0                                  2                                   0                                      9                                   2.3121952812866851e-17          1.277280859448635e-18             16.604563517901525                     21.847422672350863                       21.847422672350863               8                            8                          0                    0.79715747223378575  0.53261520180535116  0.27425178928590416
                 527584.25735235726                2.4391710020101699e-17            -7.5236522137875316e-21              9                                    0                                  3                                   0                                      10                                  2.3117343004361632e-17          1.274367015740067e-18             16.632615151155697                     21.847422672350863                       21.847422672350863               9                            9                          0                    0.79715228124463244  0.53260489550381074  0.27427405362427854
                 514426.06382458896                2.4341055400985593e-17            -5.0654619116107738e-20              10                                   0                                  3                                   0                                      11                                  2.308508808310784e-17          1.2559673178777526e-18             16.829186584152808                     21.847422672350863                       21.847422672350863               10                           10                         0                    0.79711324572480158  0.53253095523486527  0.27442896335252054
# Table End
