# ODT 1.0
# Table Start
# Title: mmArchive Data Table, Wed Jun 16 18:59:56 EDT 2010
# Columns: {Oxs_CGEvolve:evolve:Max mxHxm} {Oxs_CGEvolve:evolve:Total energy} {Oxs_CGEvolve:evolve:Delta E} {Oxs_CGEvolve:evolve:Bracket count} {Oxs_CGEvolve:evolve:Line min count} {Oxs_CGEvolve:evolve:Cycle count} {Oxs_CGEvolve:evolve:Cycle sub count} {Oxs_CGEvolve:evolve:Energy calc count} Oxs_UniaxialAnisotropy::Energy Oxs_UniformExchange::Energy {Oxs_UniformExchange::Max Spin Ang} {Oxs_UniformExchange::Stage Max Spin Ang} {Oxs_UniformExchange::Run Max Spin Ang} Oxs_MinDriver::Iteration {Oxs_MinDriver::Stage iteration} Oxs_MinDriver::Stage Oxs_MinDriver::mx    Oxs_MinDriver::my    Oxs_MinDriver::mz   
# Units:                 A/m                               J                                J                               {}                                   {}                                 {}                                  {}                                     {}                                  J                             J                              deg                                    deg                                      deg                              {}                           {}                         {}                 {}                   {}                   {}           
                 3147605.0182680166                2.6234744947554661e-16             2.6234744947554661e-16              0                                    0                                  1                                   1                                      1                                   2.2232207939914329e-16          4.0025370076403325e-17             24.266980752994527                     24.266980752994527                       24.266980752994527               0                            0                          0                    0.79542606677582184  0.53392323709464451  0.26776731434259221
                 3138609.2548497589                2.6207232706539918e-16            -2.7512241014742178e-19              1                                    0                                  1                                   1                                      2                                   2.2227976064171037e-16          3.9792566423688832e-17             24.210342264176887                     24.266980752994527                       24.266980752994527               1                            1                          0                    0.79544521597758877  0.53393634926614419  0.26777373426218831
                 3075496.5640918515                2.6017055334777002e-16            -1.9017737176291396e-18              2                                    0                                  1                                   1                                      3                                   2.2198353321838907e-16          3.8187020129380989e-17             23.813890431829339                     24.266980752994527                       24.266980752994527               2                            2                          0                    0.79557739880801248  0.53402686137315714  0.26781803734247739
                 2562584.5582780126                2.4648188028696563e-16            -1.3688673060804394e-17              3                                    0                                  1                                   1                                      4                                   2.1961566827157634e-16          2.6866212015389299e-17             20.652296233073699                     24.266980752994527                       24.266980752994527               3                            3                          0                    0.79651717308019632  0.53467070490903157  0.26813231560437145
                 1335190.1856603106                2.2443954074754702e-16            -2.2042339539418618e-17              4                                    0                                  1                                   1                                      5                                   2.1383325828966261e-16          1.0606282457884419e-17             16.50655854163621                      24.266980752994527                       24.266980752994527               4                            4                          0                    0.79793533220313362  0.53565063538106672  0.26860253079412461
                 1327522.8490739632                2.2432688708183559e-16            -1.1265366571143089e-19              5                                    0                                  2                                   0                                      6                                   2.1378025864289842e-16          1.0546628438937181e-17             16.458777140692479                     24.266980752994527                       24.266980752994527               5                            5                          0                    0.7979421170178902   0.53565556144543391  0.2686046438785874 
                 1273770.1206769026                2.2355420126690503e-16            -7.7268581493055655e-19              6                                    0                                  2                                   0                                      7                                   2.134092270059087e-16          1.0144974260996359e-17             16.124459621233679                     24.266980752994527                       24.266980752994527               6                            6                          0                    0.79798779613404025  0.5356888145790627   0.26861881993213793
                 948492.11252085469                2.1837687563231159e-16            -5.1773256345934578e-18              7                                    0                                  2                                   0                                      8                                   2.1044099698016247e-16          7.9358786521491081e-18             15.209032154905074                     24.266980752994527                       24.266980752994527               7                            7                          0                    0.79823873865846084  0.53587750727019956  0.26869347893696999
                 693864.48523128883                2.1326717756330565e-16            -5.1096980690059352e-18              8                                    0                                  2                                   0                                      9                                   2.0317513288463363e-16          1.009204467867201e-17             16.259022455804772                     24.266980752994527                       24.266980752994527               8                            8                          0                    0.79798839533322707  0.53576115437961058  0.26858548529088944
                 531717.15779416077                2.1026884598336984e-16            -2.9983315799358156e-18              9                                    0                                  3                                   1                                      10                                  1.9683761371103865e-16          1.3431232272331181e-17             20.686239777325131                     24.266980752994527                       24.266980752994527               9                            9                          0                    0.79672563633240367  0.53509530647978287  0.26810116833261327
                 444236.78246631578                2.1006576711366432e-16            -2.0307886970551618e-19              9                                    1                                  3                                   1                                      11                                  1.9810389675087137e-16          1.1961870362792958e-17             19.503628676478243                     24.266980752994527                       24.266980752994527               10                           10                         0                    0.7971141125823975   0.53531938467409634  0.26824366984200165
# Table End
