# ODT 1.0
# Table Start
# Title: mmArchive Data Table, Wed Jun 16 19:00:02 EDT 2010
# Columns: {Oxs_CGEvolve:evolve:Max mxHxm} {Oxs_CGEvolve:evolve:Total energy} {Oxs_CGEvolve:evolve:Delta E} {Oxs_CGEvolve:evolve:Bracket count} {Oxs_CGEvolve:evolve:Line min count} {Oxs_CGEvolve:evolve:Cycle count} {Oxs_CGEvolve:evolve:Cycle sub count} {Oxs_CGEvolve:evolve:Energy calc count} Oxs_UniaxialAnisotropy::Energy Oxs_UniformExchange::Energy {Oxs_UniformExchange::Max Spin Ang} {Oxs_UniformExchange::Stage Max Spin Ang} {Oxs_UniformExchange::Run Max Spin Ang} Oxs_MinDriver::Iteration {Oxs_MinDriver::Stage iteration} Oxs_MinDriver::Stage Oxs_MinDriver::mx    Oxs_MinDriver::my    Oxs_MinDriver::mz   
# Units:                 A/m                               J                                J                               {}                                   {}                                 {}                                  {}                                     {}                                  J                             J                              deg                                    deg                                      deg                              {}                           {}                         {}                 {}                   {}                   {}           
                 2405876.6847576466                5.2394782035464919e-18             5.2394782035464919e-18              0                                    0                                  1                                   1                                      1                                   4.4850879644911048e-18          7.5439023905538699e-19             22.364963086693042                     22.364963086693042                       22.364963086693042               0                            0                          0                    0.79700377888213747  0.53148431754633785  0.26729013832238435
                 2394899.6081874245                5.2328554779544318e-18            -6.6227255920603565e-21              1                                    0                                  1                                   1                                      2                                   4.4838064380724174e-18          7.4904903988201408e-19             22.294226277446125                     22.364963086693042                       22.364963086693042               1                            1                          0                    0.79702242610541874  0.53150557406109311  0.26729945455720006
                 2317925.6151220114                5.1871879438271063e-18            -4.5667534127325637e-20              2                                    0                                  1                                   1                                      3                                   4.4748376441491646e-18          7.1235029967794137e-19             21.799071876607417                     22.364963086693042                       22.364963086693042               2                            2                          0                    0.79715013224019859  0.53165247719655062  0.26736368873114463
                 1695106.9468302624                4.865729910378485e-18            -3.2145803344862127e-19              3                                    0                                  1                                   1                                      4                                   4.4032762249280675e-18          4.6245368545041738e-19             18.417333809597459                     22.364963086693042                       22.364963086693042               3                            3                          0                    0.79799331772112692  0.5327079450079566   0.26781602190262516
                 886642.2783228209                 4.4101510033917166e-18            -4.555789069867683e-19              4                                    0                                  1                                   1                                      5                                   4.2298879510496538e-18          1.8026305234206246e-19             15.530906830976459                     22.364963086693042                       22.364963086693042               4                            4                          0                    0.79871602060339442  0.53439579371104695  0.2684717583373753 
                 884229.18731774064                4.4078440865723682e-18            -2.3069168193481276e-21              5                                    0                                  2                                   0                                      6                                   4.228278115911791e-18          1.7956597066057727e-19             15.495418055749779                     22.364963086693042                       22.364963086693042               5                            5                          0                    0.79871105939053666  0.53441053539285821  0.26847980423925133
                 867283.27920779237                4.3920290950220877e-18            -1.581499155028096e-20              6                                    0                                  2                                   0                                      7                                   4.2170070400727362e-18          1.7502205494935164e-19             15.247004082560116                     22.364963086693042                       22.364963086693042               6                            6                          0                    0.79867365570265092  0.53451191655652774  0.26853518993323772
                 728449.8805195227                 4.2866227595859011e-18            -1.0540633543618645e-19              7                                    0                                  2                                   0                                      8                                   4.126804102923753e-18          1.598186566621479e-19             13.26055995203982                      22.364963086693042                       22.364963086693042               7                            7                          0                    0.79820579410482528  0.53520939376419208  0.26891882927020316
                 558369.50664337131                4.1883199084002671e-18            -9.8302851185633733e-20              8                                    0                                  2                                   0                                      9                                   3.9066811158771745e-18          2.8163879252309283e-19             17.265287336858602                     22.364963086693042                       22.364963086693042               8                            8                          0                    0.79577974011143771  0.53608475553547941  0.26940527637536427
                 599425.8634893375                 4.1311399501803478e-18            -5.7179958219919302e-20              9                                    0                                  3                                   1                                      10                                  3.7327316340436913e-18          3.9840831613665664e-19             25.246545562948008                     25.246545562948008                       25.246545562948008               9                            9                          0                    0.78994145927491155  0.53771809762219802  0.27073934571165564
                 389263.25140022713                4.1157829357132742e-18            -1.535701446707357e-20              9                                    1                                  3                                   1                                      11                                  3.7868616821098032e-18          3.2892125360347094e-19             22.767957376335996                     25.246545562948008                       25.246545562948008               10                           10                         0                    0.79210459137853784  0.53740403984868468  0.27044200301247362
# Table End
