# ODT 1.0
# Table Start
# Title: mmArchive Data Table, Wed Jun 16 18:59:21 EDT 2010
# Columns: {Oxs_CGEvolve:evolve:Max mxHxm} {Oxs_CGEvolve:evolve:Total energy} {Oxs_CGEvolve:evolve:Delta E} {Oxs_CGEvolve:evolve:Bracket count} {Oxs_CGEvolve:evolve:Line min count} {Oxs_CGEvolve:evolve:Cycle count} {Oxs_CGEvolve:evolve:Cycle sub count} {Oxs_CGEvolve:evolve:Energy calc count} Oxs_UniaxialAnisotropy::Energy Oxs_UniformExchange::Energy {Oxs_UniformExchange::Max Spin Ang} {Oxs_UniformExchange::Stage Max Spin Ang} {Oxs_UniformExchange::Run Max Spin Ang} Oxs_MinDriver::Iteration {Oxs_MinDriver::Stage iteration} Oxs_MinDriver::Stage Oxs_MinDriver::mx    Oxs_MinDriver::my    Oxs_MinDriver::mz   
# Units:                 A/m                               J                                J                               {}                                   {}                                 {}                                  {}                                     {}                                  J                             J                              deg                                    deg                                      deg                              {}                           {}                         {}                 {}                   {}                   {}           
                 2305358.3267480209                1.6297507129724015e-17             1.6297507129724015e-17              0                                    0                                  1                                   1                                      1                                   1.4470629330444817e-17          1.8268777992791982e-18             23.81470529609118                      23.81470529609118                        23.81470529609118                0                            0                          0                    0.79503791808771862  0.53330014856047514  0.26922685862777346
                 2299069.563773708                 1.6282811915651884e-17            -1.4695214072129862e-20              1                                    0                                  1                                   1                                      2                                   1.446645641166143e-17          1.8163555039904556e-18             23.757959511137827                     23.81470529609118                        23.81470529609118                1                            1                          0                    0.79505590913200286  0.53331772104045116  0.26923135657846037
                 2254906.6295743939                1.6181104570732744e-17            -1.0170734491914244e-19              2                                    0                                  1                                   1                                      3                                   1.443723647086733e-17          1.743868099865412e-18             23.36075146967784                      23.81470529609118                        23.81470529609118                2                            2                          0                    0.79517962866563918  0.53343920532329236  0.26926207697388016
                 1893410.4685220891                1.54410478684684e-17            -7.4005670226434485e-19              3                                    0                                  1                                   1                                      4                                   1.4203090532106648e-17          1.2379573363617509e-18             20.185208240284531                     23.81470529609118                        23.81470529609118                3                            3                          0                    0.79602926347336045  0.53431488268942473  0.26945956367013796
                 965595.92205353291                1.418453272459017e-17            -1.2565151438782282e-18              4                                    0                                  1                                   1                                      5                                   1.3627939426730745e-17          5.5659329785942548e-19             14.132887570423122                     23.81470529609118                        23.81470529609118                4                            4                          0                    0.79705733776486887  0.53574232915667019  0.26958071702981506
                 963393.08471892669                1.417671408956342e-17            -7.8186350267493962e-21              5                                    0                                  2                                   0                                      6                                   1.3622179703586683e-17          5.5453438597673814e-19             14.129075196732423                     23.81470529609118                        23.81470529609118                5                            5                          0                    0.79705677888731064  0.53575360293900665  0.26957876781769963
                 947910.716310082                  1.4122985712941222e-17            -5.3728376622199842e-20              6                                    0                                  2                                   0                                      7                                   1.358185315053508e-17          5.411325624061411e-19             14.102386204596213                     23.81470529609118                        23.81470529609118                6                            6                          0                    0.79705002458770613  0.53583057949855883  0.26956414787680572
                 820285.65039943822                1.3756697286475525e-17            -3.662884264656956e-19              7                                    0                                  2                                   0                                      8                                   1.3259101853244766e-17          4.9759543323075793e-19             14.473412354929888                     23.81470529609118                        23.81470529609118                7                            7                          0                    0.79681694497316558  0.53632426799904032  0.26938587274775816
                 601982.18304245698                1.3341130231394911e-17            -4.1556705508061395e-19              8                                    0                                  2                                   0                                      9                                   1.2471687627820034e-17          8.6944260357487693e-19             19.625909097919767                     23.81470529609118                        23.81470529609118                8                            8                          0                    0.79489463134063842  0.53662405279377534  0.26848803160834656
                 596110.85948076483                1.3337635536991283e-17            -3.4946944036279058e-21              9                                    0                                  3                                   0                                      10                                  1.2469920656687881e-17          8.6771488030340177e-19             19.574913588612755                     23.81470529609118                        23.81470529609118                9                            9                          0                    0.79488313205662686  0.53663246777589213  0.268485928212299  
                 554992.22455918859                1.331382599467952e-17            -2.3809542311763114e-20              10                                   0                                  3                                   0                                      11                                  1.2457559179539153e-17          8.5626681514036747e-19             19.427932039343098                     23.81470529609118                        23.81470529609118                10                           10                         0                    0.79480059468688413  0.53668998867823581  0.26847051383095288
# Table End
