# ODT 1.0
# Table Start
# Title: mmArchive Data Table, Wed Jun 16 18:59:53 EDT 2010
# Columns: {Oxs_CGEvolve:evolve:Max mxHxm} {Oxs_CGEvolve:evolve:Total energy} {Oxs_CGEvolve:evolve:Delta E} {Oxs_CGEvolve:evolve:Bracket count} {Oxs_CGEvolve:evolve:Line min count} {Oxs_CGEvolve:evolve:Cycle count} {Oxs_CGEvolve:evolve:Cycle sub count} {Oxs_CGEvolve:evolve:Energy calc count} Oxs_UniaxialAnisotropy::Energy Oxs_UniformExchange::Energy {Oxs_UniformExchange::Max Spin Ang} {Oxs_UniformExchange::Stage Max Spin Ang} {Oxs_UniformExchange::Run Max Spin Ang} Oxs_MinDriver::Iteration {Oxs_MinDriver::Stage iteration} Oxs_MinDriver::Stage Oxs_MinDriver::mx    Oxs_MinDriver::my    Oxs_MinDriver::mz   
# Units:                 A/m                               J                                J                               {}                                   {}                                 {}                                  {}                                     {}                                  J                             J                              deg                                    deg                                      deg                              {}                           {}                         {}                 {}                   {}                   {}           
                 3575428.8429035759                1.6731889484490667e-16             1.6731889484490667e-16              0                                    0                                  1                                   1                                      1                                   1.4267977536063715e-16          2.4639119484269499e-17             22.995792189961314                     22.995792189961314                       22.995792189961314               0                            0                          0                    0.79466587739961814  0.53469599403646673  0.26851672685364403
                 3565549.2483850392                1.6716983186229914e-16            -1.4906298260752684e-19              1                                    0                                  1                                   1                                      2                                   1.4265592370819548e-16          2.4513908154103663e-17             22.961860374884509                     22.995792189961314                       22.995792189961314               1                            1                          0                    0.79468374217839421  0.5347058180239519   0.26852127922275493
                 3496200.2012105202                1.6613773359001106e-16            -1.032098272288085e-18              2                                    0                                  1                                   1                                      3                                   1.424889715994793e-16          2.3648761990531743e-17             22.724339846697887                     22.995792189961314                       22.995792189961314               2                            2                          0                    0.79480739838064596  0.53477362468420153  0.26855266535365319
                 2930465.0842777011                1.5859906121695282e-16            -7.5386723730582366e-18              3                                    0                                  1                                   1                                      4                                   1.4115471848529827e-16          1.7444342731654537e-17             20.824562009759635                     22.995792189961314                       22.995792189961314               3                            3                          0                    0.79570829562604939  0.53525554191687319  0.26877347631271731
                 1481866.2420186112                1.4552307524019834e-16            -1.3075985976754467e-17              4                                    0                                  1                                   1                                      5                                   1.3789377773396004e-16          7.6292975062382955e-18             16.150047788572394                     22.995792189961314                       22.995792189961314               4                            4                          0                    0.79725335701545996  0.53598635074267276  0.26908863245984282
                 1471922.4684254178                1.4543966612121482e-16            -8.3409118983518257e-20              5                                    0                                  2                                   0                                      6                                   1.3785980637368365e-16          7.5798597475311689e-18             16.101263690375198                     22.995792189961314                       22.995792189961314               5                            5                          0                    0.79726499571776976  0.53598884814995751  0.26908876069553589
                 1420530.4750095194                1.4486733625856246e-16            -5.7232986265236362e-19              6                                    0                                  2                                   0                                      7                                   1.3762200775243373e-16          7.2453285061287423e-18             15.860742015239811                     22.995792189961314                       22.995792189961314               6                            6                          0                    0.79734456213108018  0.53600503141869071  0.26908900826288834
                 1147497.2722732113                1.4101772598911624e-16            -3.8496102694462101e-18              7                                    0                                  2                                   0                                      8                                   1.357211541394172e-16          5.2965718496990449e-18             16.509739711640712                     22.995792189961314                       22.995792189961314               7                            7                          0                    0.79786077193347749  0.53605295010533582  0.26905013662698735
                 819689.32133525645                1.3708514341846825e-16            -3.9325825706479955e-18              8                                    0                                  2                                   0                                      9                                   1.3108150754456322e-16          6.0036358739050273e-18             18.357309383179615                     22.995792189961314                       22.995792189961314               8                            8                          0                    0.79821661098973062  0.53556135530997706  0.26864818744243402
                 536121.6646709732                 1.346212765220853e-16            -2.4638668963829672e-18              9                                    0                                  3                                   1                                      10                                  1.2694613109152561e-16          7.6751454305596685e-18             20.293546508084972                     22.995792189961314                       22.995792189961314               9                            9                          0                    0.79829111554703946  0.53387017569563899  0.26736439006959967
                 497145.18658076721                1.3357101583653257e-16            -1.050260685552734e-18              10                                   0                                  4                                   2                                      11                                  1.241128624485861e-16          9.4581533879464652e-18             26.251692360178669                     26.251692360178669                       26.251692360178669               10                           10                         0                    0.79829548046367038  0.53135312412825508  0.26553985229419036
# Table End
