# ODT 1.0
# Table Start
# Title: mmArchive Data Table, Wed Jun 16 18:59:22 EDT 2010
# Columns: {Oxs_CGEvolve:evolve:Max mxHxm} {Oxs_CGEvolve:evolve:Total energy} {Oxs_CGEvolve:evolve:Delta E} {Oxs_CGEvolve:evolve:Bracket count} {Oxs_CGEvolve:evolve:Line min count} {Oxs_CGEvolve:evolve:Cycle count} {Oxs_CGEvolve:evolve:Cycle sub count} {Oxs_CGEvolve:evolve:Energy calc count} Oxs_UniaxialAnisotropy::Energy Oxs_UniformExchange::Energy {Oxs_UniformExchange::Max Spin Ang} {Oxs_UniformExchange::Stage Max Spin Ang} {Oxs_UniformExchange::Run Max Spin Ang} Oxs_MinDriver::Iteration {Oxs_MinDriver::Stage iteration} Oxs_MinDriver::Stage Oxs_MinDriver::mx    Oxs_MinDriver::my    Oxs_MinDriver::mz   
# Units:                 A/m                               J                                J                               {}                                   {}                                 {}                                  {}                                     {}                                  J                             J                              deg                                    deg                                      deg                              {}                           {}                         {}                 {}                   {}                   {}           
                 2809528.3864755598                2.2590872307278058e-17             2.2590872307278058e-17              0                                    0                                  1                                   1                                      1                                   2.0062552215756414e-17          2.5283200915216428e-18             23.334397171929474                     23.334397171929474                       23.334397171929474               0                            0                          0                    0.7966850345372759   0.53019975358721472  0.27038331117800085
                 2798836.065774587                 2.2573344978558947e-17            -1.7527328719111392e-20              1                                    0                                  1                                   1                                      2                                   2.0058280819248562e-17          2.5150641593103851e-18             23.290095003249895                     23.334397171929474                       23.334397171929474               1                            1                          0                    0.79670391027770759  0.53020985308428559  0.27038474096894854
                 2723878.2986525218                2.2452000834683632e-17            -1.213441438753133e-19              2                                    0                                  1                                   1                                      3                                   2.0028376237087017e-17          2.4236245975966143e-18             22.980058524777593                     23.334397171929474                       23.334397171929474               2                            2                          0                    0.79683446634157973  0.53027945630570072  0.27039420537494535
                 2118391.9117055056                2.1566650366354943e-17            -8.8535046832869125e-19              3                                    0                                  1                                   1                                      4                                   1.978896927055633e-17          1.7776810957986118e-18             20.505923874253607                     23.334397171929474                       23.334397171929474               3                            3                          0                    0.79777923093674852  0.53076764166609969  0.27043554390275115
                 1114394.1821999215                2.004047709221524e-17            -1.5261732741397012e-18              4                                    0                                  1                                   1                                      5                                   1.9200617873575127e-17          8.3985921864011325e-19             17.928399894928287                     23.334397171929474                       23.334397171929474               4                            4                          0                    0.79934323516360861  0.53145830696285268  0.27027554160020345
                 1111904.1654059538                2.0029260818027749e-17            -1.1216274187493108e-20              5                                    0                                  2                                   0                                      6                                   1.9193584700518287e-17          8.3567611750945959e-19             17.90653858981447                      23.334397171929474                       23.334397171929474               5                            5                          0                    0.79935727533847434  0.53145951043243134  0.27026666783198849
                 1094390.9331106399                1.9952038504207874e-17            -7.7222313819875156e-20              6                                    0                                  2                                   0                                      7                                   1.9144337681496581e-17          8.0770082271129167e-19             17.754931959758103                     23.334397171929474                       23.334397171929474               6                            6                          0                    0.79945297406102045  0.53146620370620046  0.2702036659754396 
                 981644.01999510219                1.9416121836016077e-17            -5.3591666819179562e-19              7                                    0                                  2                                   0                                      8                                   1.8749838863748483e-17          6.6628297226759342e-19             16.639634225531672                     23.334397171929474                       23.334397171929474               7                            7                          0                    0.80005539780587809  0.5314112004771      0.26964402667514509
                 781570.29534809606                1.8722901193986636e-17            -6.9322064202944065e-19              8                                    0                                  2                                   0                                      9                                   1.7783042818411702e-17          9.3985837557493477e-19             18.924267395186316                     23.334397171929474                       23.334397171929474               8                            8                          0                    0.80029974546571636  0.5304693322743298   0.26784898907414723
                 780141.90586174512                1.8718148747802418e-17            -4.7524461842172001e-21              9                                    0                                  3                                   0                                      10                                  1.7779747543025492e-17          9.3840120477692516e-19             18.956671581928113                     23.334397171929474                       23.334397171929474               9                            9                          0                    0.80030715620001258  0.53046022211115296  0.26783008060347335
                 770077.31938959705                1.8685689646651692e-17            -3.2459101150727606e-20              10                                   0                                  3                                   0                                      11                                  1.7756678305149954e-17          9.2901134150173855e-19             19.183627610510797                     23.334397171929474                       23.334397171929474               10                           10                         0                    0.80035745246481904  0.53039542585714272  0.26769720115920187
# Table End
