# ODT 1.0
# Table Start
# Title: mmArchive Data Table, Wed Jun 16 19:00:01 EDT 2010
# Columns: {Oxs_CGEvolve:evolve:Max mxHxm} {Oxs_CGEvolve:evolve:Total energy} {Oxs_CGEvolve:evolve:Delta E} {Oxs_CGEvolve:evolve:Bracket count} {Oxs_CGEvolve:evolve:Line min count} {Oxs_CGEvolve:evolve:Cycle count} {Oxs_CGEvolve:evolve:Cycle sub count} {Oxs_CGEvolve:evolve:Energy calc count} Oxs_UniaxialAnisotropy::Energy Oxs_UniformExchange::Energy {Oxs_UniformExchange::Max Spin Ang} {Oxs_UniformExchange::Stage Max Spin Ang} {Oxs_UniformExchange::Run Max Spin Ang} Oxs_MinDriver::Iteration {Oxs_MinDriver::Stage iteration} Oxs_MinDriver::Stage Oxs_MinDriver::mx    Oxs_MinDriver::my    Oxs_MinDriver::mz   
# Units:                 A/m                               J                                J                               {}                                   {}                                 {}                                  {}                                     {}                                  J                             J                              deg                                    deg                                      deg                              {}                           {}                         {}                 {}                   {}                   {}           
                 2145999.6605098373                4.0262553904832364e-18             4.0262553904832364e-18              0                                    0                                  1                                   1                                      1                                   3.5172647552168655e-18          5.0899063526637073e-19             20.280163425980472                     20.280163425980472                       20.280163425980472               0                            0                          0                    0.80108175031543694  0.52720863072870128  0.2648711237510632 
                 2135132.6749574556                4.021236700678595e-18            -5.0186898046416685e-21              1                                    0                                  1                                   1                                      2                                   3.5162289355701441e-18          5.0500776510845085e-19             20.252464143446744                     20.280163425980472                       20.280163425980472               1                            1                          0                    0.80111425906274569  0.52721750503497455  0.2648625055241019 
                 2058981.9801224754                3.9866967982308203e-18            -3.453990244777447e-20              2                                    0                                  1                                   1                                      3                                   3.5089823574632672e-18          4.7771444076755282e-19             20.058583005481417                     20.280163425980472                       20.280163425980472               2                            2                          0                    0.80133863600573541  0.52727751819359048  0.26480112842981596
                 1456174.5640833541                3.7478522467737566e-18            -2.3884455145706378e-19              3                                    0                                  1                                   1                                      4                                   3.4513375033017081e-18          2.9651474347204865e-19             18.508963894560605                     20.280163425980472                       20.280163425980472               3                            3                          0                    0.80293194028336512  0.52762498123304602  0.26424459026902375
                 859073.1467572574                 3.4460363144177209e-18            -3.0181593235603566e-19              4                                    0                                  1                                   1                                      5                                   3.3132034843382796e-18          1.3283283007944142e-19             14.714079680879811                     20.280163425980472                       20.280163425980472               4                            4                          0                    0.80531656500871041  0.52748596654976054  0.26239363757491774
                 856141.05803313782                3.4443933394572105e-18            -1.6429749605104795e-21              5                                    0                                  2                                   0                                      6                                   3.3120389669994666e-18          1.3235437245774372e-19             14.69399818767352                      20.280163425980472                       20.280163425980472               5                            5                          0                    0.80533770811902639  0.52748014229705709  0.26235755658359472
                 835544.76387800486                3.4331291272221196e-18            -1.1264212235090931e-20              6                                    0                                  2                                   0                                      7                                   3.3038897644449054e-18          1.2923936277721399e-19             14.555810907286505                     20.280163425980472                       20.280163425980472               6                            6                          0                    0.80548308503049093  0.52743763707940805  0.2621041607605708 
                 666553.84752865543                3.358005979337939e-18            -7.5123147884180523e-20              7                                    0                                  2                                   0                                      8                                   3.238932968466366e-18          1.1907301087157286e-19             14.636992473730173                     20.280163425980472                       20.280163425980472               7                            7                          0                    0.80648030902807655  0.52698855991649685  0.26002582257445189
                 724829.98452072556                3.2875855180021482e-18            -7.0420461335790827e-20              8                                    0                                  2                                   0                                      9                                   3.0825502268606182e-18          2.0503529114152991e-19             17.256755987987006                     20.280163425980472                       20.280163425980472               8                            8                          0                    0.80768067043048652  0.52506783054619321  0.25454150501871159
                 701531.59930586361                3.218062718760132e-18            -6.9522799242016087e-20              9                                    0                                  3                                   1                                      10                                  2.8735280853494756e-18          3.445346334106566e-19             27.357761455225425                     27.357761455225425                       27.357761455225425               9                            9                          0                    0.80845882536927383  0.52145014093080966  0.24256884830115058
                 457037.19441863429                3.2120701507523201e-18            -5.9925680078120415e-21              9                                    1                                  3                                   1                                      11                                  2.9179676208730638e-18          2.9410252987925625e-19             24.945598869010663                     27.357761455225425                       27.357761455225425               10                           10                         0                    0.80855654932592003  0.52242025793249036  0.24525524629339268
# Table End
