# ODT 1.0
# Table Start
# Title: mmArchive Data Table, Wed Jun 16 19:00:00 EDT 2010
# Columns: {Oxs_CGEvolve:evolve:Max mxHxm} {Oxs_CGEvolve:evolve:Total energy} {Oxs_CGEvolve:evolve:Delta E} {Oxs_CGEvolve:evolve:Bracket count} {Oxs_CGEvolve:evolve:Line min count} {Oxs_CGEvolve:evolve:Cycle count} {Oxs_CGEvolve:evolve:Cycle sub count} {Oxs_CGEvolve:evolve:Energy calc count} Oxs_UniaxialAnisotropy::Energy Oxs_UniformExchange::Energy {Oxs_UniformExchange::Max Spin Ang} {Oxs_UniformExchange::Stage Max Spin Ang} {Oxs_UniformExchange::Run Max Spin Ang} Oxs_MinDriver::Iteration {Oxs_MinDriver::Stage iteration} Oxs_MinDriver::Stage Oxs_MinDriver::mx    Oxs_MinDriver::my    Oxs_MinDriver::mz   
# Units:                 A/m                               J                                J                               {}                                   {}                                 {}                                  {}                                     {}                                  J                             J                              deg                                    deg                                      deg                              {}                           {}                         {}                 {}                   {}                   {}           
                 1275574.8158078196                7.7869471641186623e-19             7.7869471641186623e-19              0                                    0                                  1                                   1                                      1                                   6.7257071595755333e-19          1.0612400045431283e-19             16.693927224252629                     16.693927224252629                       16.693927224252629               0                            0                          0                    0.79333404056243839  0.53284329467399938  0.27061266626623942
                 1271484.7233702601                7.7777288830417351e-19            -9.2182810769269702e-22              1                                    0                                  1                                   1                                      2                                   6.7247592676952703e-19          1.0529696153464649e-19             16.633788902876454                     16.693927224252629                       16.693927224252629               1                            1                          0                    0.79335185926184604  0.53287514879143894  0.27062890883199625
                 1242794.6328235778                7.7144891589413835e-19            -6.3239724100351119e-21              2                                    0                                  1                                   1                                      3                                   6.7181424689484254e-19          9.963466899929588e-20             16.213221994360506                     16.693927224252629                       16.693927224252629               2                            2                          0                    0.79347248398642645  0.53309528558669539  0.27074115665797699
                 1010087.3379322499                7.2903397945255049e-19            -4.2414936441587933e-20              3                                    0                                  1                                   1                                      4                                   6.6664803727276724e-19          6.2385942179783208e-20             12.883089886483024                     16.693927224252629                       16.693927224252629               3                            3                          0                    0.79417748586159276  0.53467746908026215  0.27154723059603336
                 708656.38472785463                6.8699232104875715e-19            -4.2041658403793305e-20              4                                    0                                  1                                   1                                      5                                   6.5513229241332048e-19          3.1860028635436675e-20             10.716335420293488                     16.693927224252629                       16.693927224252629               4                            4                          0                    0.79393577262232273  0.53723970209736016  0.27283274227869136
                 541110.35130569863                6.5389939609958247e-19            -3.3092924949174684e-20              5                                    0                                  2                                   2                                      6                                   6.0834461086277224e-19          4.5554785236810206e-20             17.621097322413426                     17.621097322413426                       17.621097322413426               5                            5                          0                    0.78797802986165377  0.54060456781003985  0.27604756902776056
                 523886.48823913513                6.5364584969752285e-19            -2.5354640205958532e-22              5                                    1                                  2                                   2                                      7                                   6.1197228243638488e-19          4.1673567261137972e-20             16.954783855455723                     17.621097322413426                       17.621097322413426               6                            6                          0                    0.78859183247313747  0.54044070165500258  0.27584902118693366
                 500957.00991541852                6.3697333826827367e-19            -1.6672511429249202e-20              6                                    1                                  3                                   3                                      8                                   5.6128119800478862e-19          7.5692140263485105e-20             22.508499795704324                     22.508499795704324                       22.508499795704324               7                            7                          0                    0.77743713603618969  0.54279459635293703  0.28186867593735893
                 337526.98502950824                6.3592337053762308e-19            -1.0499677306505965e-21              6                                    2                                  3                                   3                                      9                                   5.7084169897240756e-19          6.5081671565215515e-20             21.38297029732038                      22.508499795704324                       22.508499795704324               8                            8                          0                    0.77993147607598967  0.54255378905284835  0.2808247805224604 
                 542972.3314305793                 6.3366642170297819e-19            -2.2569488346448854e-21              7                                    2                                  4                                   4                                      10                                  5.4778086340510217e-19          8.5885558297876016e-20             30.209799996403895                     30.209799996403895                       30.209799996403895               9                            9                          0                    0.76398512787324313  0.54736385159754475  0.2904711949754426 
                 273349.73352694401                6.2853593827782807e-19            -5.1304834251501738e-21              7                                    3                                  4                                   4                                      11                                  5.5802057679562765e-19          7.0515361482200415e-20             25.058768540679772                     30.209799996403895                       30.209799996403895               10                           10                         0                    0.77172440824562338  0.54548956968546458  0.28627582932548779
# Table End
