# ODT 1.0
# Table Start
# Title: mmArchive Data Table, Wed Jun 16 19:00:01 EDT 2010
# Columns: {Oxs_CGEvolve:evolve:Max mxHxm} {Oxs_CGEvolve:evolve:Total energy} {Oxs_CGEvolve:evolve:Delta E} {Oxs_CGEvolve:evolve:Bracket count} {Oxs_CGEvolve:evolve:Line min count} {Oxs_CGEvolve:evolve:Cycle count} {Oxs_CGEvolve:evolve:Cycle sub count} {Oxs_CGEvolve:evolve:Energy calc count} Oxs_UniaxialAnisotropy::Energy Oxs_UniformExchange::Energy {Oxs_UniformExchange::Max Spin Ang} {Oxs_UniformExchange::Stage Max Spin Ang} {Oxs_UniformExchange::Run Max Spin Ang} Oxs_MinDriver::Iteration {Oxs_MinDriver::Stage iteration} Oxs_MinDriver::Stage Oxs_MinDriver::mx    Oxs_MinDriver::my    Oxs_MinDriver::mz   
# Units:                 A/m                               J                                J                               {}                                   {}                                 {}                                  {}                                     {}                                  J                             J                              deg                                    deg                                      deg                              {}                           {}                         {}                 {}                   {}                   {}           
                 2008568.8709081116                2.4515380324595778e-18             2.4515380324595778e-18              0                                    0                                  1                                   1                                      1                                   2.1971442720870734e-18          2.5439376037250458e-19             16.40663313190775                      16.40663313190775                        16.40663313190775                0                            0                          0                    0.79744359194433756  0.53007337387406284  0.27091581903896567
                 1998355.9059809372                2.4490018704483144e-18            -2.5361620112635554e-21              1                                    0                                  1                                   1                                      2                                   2.196612199745907e-18          2.5238967070240729e-19             16.327771516992243                     16.40663313190775                        16.40663313190775                1                            1                          0                    0.79745600777784564  0.53008776921938638  0.27094754860674503
                 1926804.0188662244                2.4315414827628799e-18            -1.7460387685434459e-20              2                                    0                                  1                                   1                                      3                                   2.1928818119392318e-18          2.3865967082364813e-19             15.775997444008361                     16.40663313190775                        16.40663313190775                2                            2                          0                    0.79754008316000446  0.53018657164794591  0.27116866327524902
                 1352650.4411629366                2.3104157697560007e-18            -1.2112571300687916e-19              3                                    0                                  1                                   1                                      4                                   2.1626975016271517e-18          1.4771826812884897e-19             13.158319315568065                     16.40663313190775                        16.40663313190775                3                            3                          0                    0.79803268640077962  0.53085415482561005  0.27287486474532824
                 882953.83609139977                2.1538993651528168e-18            -1.5651640460318379e-19              4                                    0                                  1                                   1                                      5                                   2.0864339588745085e-18          6.7465406278308296e-20             11.6076737180643                       16.40663313190775                        16.40663313190775                4                            4                          0                    0.79785996467539211  0.53159781762580394  0.27660421553444842
                 879175.15931006765                2.1529274376193209e-18            -9.7192753349598475e-22              5                                    0                                  2                                   0                                      6                                   2.0857164691974554e-18          6.7210968421865454e-20             11.605078773664967                     16.40663313190775                        16.40663313190775                5                            5                          0                    0.79784519501577711  0.531597712614991    0.27666484541504299
                 852681.85892531031                2.1462675216932612e-18            -6.6599159260599535e-21              6                                    0                                  2                                   0                                      7                                   2.0806912561324938e-18          6.5576265560767053e-20             11.587348816878768                     16.40663313190775                        16.40663313190775                6                            6                          0                    0.79773927999032246  0.53159530587463388  0.27708840443136934
                 685692.78653504234                2.1020882987223654e-18            -4.417922297089576e-20              7                                    0                                  2                                   0                                      8                                   2.0403697437067898e-18          6.1718555015575601e-20             11.473255254740149                     16.40663313190775                        16.40663313190775                7                            7                          0                    0.79673319810690224  0.5314707580557867   0.28042215088963973
                 809525.45942983287                2.0628319705186233e-18            -3.9256328203742032e-20              8                                    0                                  2                                   0                                      9                                   1.9414039353746918e-18          1.2142803514393151e-19             14.316514055652329                     16.40663313190775                        16.40663313190775                8                            8                          0                    0.7930702611574153   0.53037227450055802  0.2882018408259599 
                 603219.15440772346                2.0154211063320816e-18            -4.7410864186541792e-20              9                                    0                                  3                                   1                                      10                                  1.7985960061742705e-18          2.1682510015781114e-19             26.422216257878151                     26.422216257878151                       26.422216257878151               9                            9                          0                    0.78363764382561552  0.52645955596547778  0.30497890492572305
                 425342.77532583516                2.01065112802199e-18            -4.7699783100913499e-21              9                                    1                                  3                                   1                                      11                                  1.8306530876010052e-18          1.7999804042098474e-19             23.638940104690938                     26.422216257878151                       26.422216257878151               10                           10                         0                    0.78615713508174645  0.52760156547901105  0.30123774993867569
# Table End
