# ODT 1.0
# Table Start
# Title: mmArchive Data Table, Wed Jun 16 18:59:44 EDT 2010
# Columns: {Oxs_CGEvolve:evolve:Max mxHxm} {Oxs_CGEvolve:evolve:Total energy} {Oxs_CGEvolve:evolve:Delta E} {Oxs_CGEvolve:evolve:Bracket count} {Oxs_CGEvolve:evolve:Line min count} {Oxs_CGEvolve:evolve:Cycle count} {Oxs_CGEvolve:evolve:Cycle sub count} {Oxs_CGEvolve:evolve:Energy calc count} Oxs_UniaxialAnisotropy::Energy Oxs_UniformExchange::Energy {Oxs_UniformExchange::Max Spin Ang} {Oxs_UniformExchange::Stage Max Spin Ang} {Oxs_UniformExchange::Run Max Spin Ang} Oxs_MinDriver::Iteration {Oxs_MinDriver::Stage iteration} Oxs_MinDriver::Stage Oxs_MinDriver::mx    Oxs_MinDriver::my    Oxs_MinDriver::mz   
# Units:                 A/m                               J                                J                               {}                                   {}                                 {}                                  {}                                     {}                                  J                             J                              deg                                    deg                                      deg                              {}                           {}                         {}                 {}                   {}                   {}           
                 2710515.7088875617                5.1257209560166113e-17             5.1257209560166113e-17              0                                    0                                  1                                   1                                      1                                   4.4061778783990157e-17          7.1954307761759589e-18             24.162177777666948                     24.162177777666948                       24.162177777666948               0                            0                          0                    0.79514299943138589  0.53327411777049993  0.26907868974539872
                 2700643.7694384414                5.1204029976193466e-17            -5.3179583972647724e-20              1                                    0                                  1                                   1                                      2                                   4.4052962973365895e-17          7.1510670028275698e-18             24.094381603088692                     24.162177777666948                       24.162177777666948               1                            1                          0                    0.79516248066032869  0.53328706921721047  0.26908891223654896
                 2631378.9136411278                5.0836770232779233e-17            -3.6725974341423418e-19              2                                    0                                  1                                   1                                      3                                   4.3991227368062929e-17          6.8455428647163052e-18             23.620004149568377                     24.162177777666948                       24.162177777666948               2                            2                          0                    0.79529670826238763  0.53337628020606076  0.26915974063408338
                 2068255.3247103216                4.8215477473252061e-17            -2.6212927595271688e-18              3                                    0                                  1                                   1                                      4                                   4.3496189870381759e-17          4.7192876028703062e-18             20.137384352821165                     24.162177777666948                       24.162177777666948               3                            3                          0                    0.79623524301348803  0.53399850724922915  0.26968028229718372
                 1317816.8470125808                4.4184835667325422e-17            -4.0306418059266436e-18              4                                    0                                  1                                   1                                      5                                   4.2276949910876307e-17          1.9078857564491113e-18             18.127310274172533                     24.162177777666948                       24.162177777666948               4                            4                          0                    0.79751883066621942  0.53483856937655871  0.27061219661034602
                 1312703.4975454018                4.4167418684736108e-17            -1.7416982589309592e-20              5                                    0                                  2                                   0                                      6                                   4.2267292803607049e-17          1.9001258811290624e-18             18.108368448739434                     24.162177777666948                       24.162177777666948               5                            5                          0                    0.79752271634113603  0.53484033790236418  0.27062104422582217
                 1276824.3583937986                4.4047456346466322e-17            -1.1996233826978548e-19              6                                    0                                  2                                   0                                      7                                   4.2199663110994551e-17          1.8477932354717742e-18             17.975789541357791                     24.162177777666948                       24.162177777666948               6                            6                          0                    0.79754846578098215  0.53485173577610046  0.27068248338549872
                 999789.97241444583                4.3211452808691239e-17            -8.360035377750852e-19              7                                    0                                  2                                   0                                      8                                   4.1657074783226926e-17          1.5543780254643161e-18             16.916237087542449                     24.162177777666948                       24.162177777666948               7                            7                          0                    0.79766298656383072  0.53488117484781561  0.27114282809916307
                 885929.20138001803                4.2095595000607775e-17            -1.1158578080834635e-18              8                                    0                                  2                                   0                                      9                                   4.0315706365057629e-17          1.7798886355501495e-18             19.664511472095146                     24.162177777666948                       24.162177777666948               8                            8                          0                    0.79725114175888911  0.53448948553162567  0.27204114052711259
                 884813.90778437757                4.2089472748299245e-17            -6.1222523085304256e-21              9                                    0                                  3                                   0                                      10                                  4.0310681634590217e-17          1.7787911137090296e-18             19.665699404902082                     24.162177777666948                       24.162177777666948               9                            9                          0                    0.79724778746808245  0.5344848089798464   0.27205109514439341
                 876926.50429755566                4.2047418209934592e-17            -4.2054538364655274e-20              10                                   0                                  3                                   0                                      11                                  4.0275493964671186e-17          1.7719242452634048e-18             19.673996374000311                     24.162177777666948                       24.162177777666948               10                           10                         0                    0.79722354895525183  0.53445156190818843  0.27212051575670759
# Table End
