# ODT 1.0
# Table Start
# Title: mmArchive Data Table, Wed Jun 16 18:59:29 EDT 2010
# Columns: {Oxs_CGEvolve:evolve:Max mxHxm} {Oxs_CGEvolve:evolve:Total energy} {Oxs_CGEvolve:evolve:Delta E} {Oxs_CGEvolve:evolve:Bracket count} {Oxs_CGEvolve:evolve:Line min count} {Oxs_CGEvolve:evolve:Cycle count} {Oxs_CGEvolve:evolve:Cycle sub count} {Oxs_CGEvolve:evolve:Energy calc count} Oxs_UniaxialAnisotropy::Energy Oxs_UniformExchange::Energy {Oxs_UniformExchange::Max Spin Ang} {Oxs_UniformExchange::Stage Max Spin Ang} {Oxs_UniformExchange::Run Max Spin Ang} Oxs_MinDriver::Iteration {Oxs_MinDriver::Stage iteration} Oxs_MinDriver::Stage Oxs_MinDriver::mx    Oxs_MinDriver::my    Oxs_MinDriver::mz   
# Units:                 A/m                               J                                J                               {}                                   {}                                 {}                                  {}                                     {}                                  J                             J                              deg                                    deg                                      deg                              {}                           {}                         {}                 {}                   {}                   {}           
                 3088347.1822259407                7.7473205457986924e-17             7.7473205457986924e-17              0                                    0                                  1                                   1                                      1                                   6.6043525223086588e-17          1.1429680234900339e-17             22.777978336937363                     22.777978336937363                       22.777978336937363               0                            0                          0                    0.79411364574002441  0.53558790312587756  0.2678302272497784 
                 3079803.4607141721                7.7394696924392138e-17            -7.8508533594794122e-20              1                                    0                                  1                                   1                                      2                                   6.6031262329600317e-17          1.1363434594791818e-17             22.713192155172589                     22.777978336937363                       22.777978336937363               1                            1                          0                    0.79413457019541533  0.53559915192335028  0.26783651435536271
                 3019840.3872314519                7.6851937040861558e-17            -5.427598835305802e-19              2                                    0                                  1                                   1                                      3                                   6.5945417897635093e-17          1.0906519143226467e-17             22.260882657753637                     22.777978336937363                       22.777978336937363               2                            2                          0                    0.79427916240119079  0.53567659711348181  0.26787987898718879
                 2531090.5389926927                7.29407415618616e-17            -3.9111954789999506e-18              3                                    0                                  1                                   1                                      4                                   6.5258936596905989e-17          7.6818049649556163e-18             19.373928046464453                     22.777978336937363                       22.777978336937363               3                            3                          0                    0.7953170248011423   0.53621452338078757  0.26818609036955948
                 1279170.9237250062                6.660673489883063e-17            -6.3340066630309808e-18              4                                    0                                  1                                   1                                      5                                   6.3581277468235585e-17          3.0254574305950339e-18             15.306075777681171                     22.777978336937363                       22.777978336937363               4                            4                          0                    0.79696618400563324  0.53692514096855748  0.26863211836505524
                 1271873.7063653665                6.6572572496863065e-17            -3.4162401967563402e-20              5                                    0                                  2                                   0                                      6                                   6.3564762350217892e-17          3.0078101466451647e-18             15.309457045928868                     22.777978336937363                       22.777978336937363               5                            5                          0                    0.79697695260132673  0.53692548354844194  0.26863294649718017
                 1220723.1915943543                6.6338264768805762e-17            -2.3430772805729827e-19              6                                    0                                  2                                   0                                      7                                   6.3449140650521075e-17          2.8891241182846905e-18             15.333630247616165                     22.777978336937363                       22.777978336937363               6                            6                          0                    0.79705033571949535  0.53692652285834219  0.26863806402342172
                 949169.09559833328                6.4769077155668744e-17            -1.5691876131370251e-18              7                                    0                                  2                                   0                                      8                                   6.2523923350331782e-17          2.245153805336959e-18             15.558282629173064                     22.777978336937363                       22.777978336937363               7                            7                          0                    0.79751126892229429  0.53684950147444177  0.26863634446551715
                 669949.28887795494                6.322807197845797e-17            -1.5410051772107709e-18              8                                    0                                  2                                   0                                      9                                   6.0259035606857844e-17          2.9690363716001192e-18             16.446881876809936                     22.777978336937363                       22.777978336937363               8                            8                          0                    0.79768781392669141  0.5360215716021961   0.26831337201205147
                 593710.57146318885                6.2166004136247376e-17            -1.0620678422105911e-18              9                                    0                                  3                                   1                                      10                                  5.8097479089588098e-17          4.0685250466592741e-18             22.900081821227385                     22.900081821227385                       22.900081821227385               9                            9                          0                    0.79752720416890699  0.53346391370903956  0.26707976697795327
                 469365.63518502651                6.2134245157652026e-17            -3.1758978595354608e-20              9                                    1                                  3                                   1                                      11                                  5.8409824158916001e-17          3.724420998736025e-18             21.559034520968925                     22.900081821227385                       22.900081821227385               10                           10                         0                    0.79767043072754529  0.53391518574872088  0.26729769821904847
# Table End
