# ODT 1.0
# Table Start
# Title: mmArchive Data Table, Wed Jun 16 18:59:46 EDT 2010
# Columns: {Oxs_CGEvolve:evolve:Max mxHxm} {Oxs_CGEvolve:evolve:Total energy} {Oxs_CGEvolve:evolve:Delta E} {Oxs_CGEvolve:evolve:Bracket count} {Oxs_CGEvolve:evolve:Line min count} {Oxs_CGEvolve:evolve:Cycle count} {Oxs_CGEvolve:evolve:Cycle sub count} {Oxs_CGEvolve:evolve:Energy calc count} Oxs_UniaxialAnisotropy::Energy Oxs_UniformExchange::Energy {Oxs_UniformExchange::Max Spin Ang} {Oxs_UniformExchange::Stage Max Spin Ang} {Oxs_UniformExchange::Run Max Spin Ang} Oxs_MinDriver::Iteration {Oxs_MinDriver::Stage iteration} Oxs_MinDriver::Stage Oxs_MinDriver::mx    Oxs_MinDriver::my    Oxs_MinDriver::mz   
# Units:                 A/m                               J                                J                               {}                                   {}                                 {}                                  {}                                     {}                                  J                             J                              deg                                    deg                                      deg                              {}                           {}                         {}                 {}                   {}                   {}           
                 2542280.8712754003                1.7176102840472439e-17             1.7176102840472439e-17              0                                    0                                  1                                   1                                      1                                   1.4982518965735586e-17          2.1935838747368533e-18             23.832877308341594                     23.832877308341594                       23.832877308341594               0                            0                          0                    0.79438377736450294  0.53410373419947166  0.26897938247535325
                 2535180.1749820462                1.7158611046386143e-17            -1.7491794086299054e-20              1                                    0                                  1                                   1                                      2                                   1.4979025371066219e-17          2.1795856753199228e-18             23.75135263854305                      23.832877308341594                       23.832877308341594               1                            1                          0                    0.79440617411861703  0.5341197947096733   0.26898175751664855
                 2485347.544525947                 1.7037760685940304e-17            -1.2085036044583706e-19              2                                    0                                  1                                   1                                      3                                   1.495456588000638e-17          2.0831948059339241e-18             23.180710492342634                     23.832877308341594                       23.832877308341594               2                            2                          0                    0.79456054210868532  0.53423055689506993  0.26899755349693233
                 2079365.0742077415                1.6172030363617574e-17            -8.6573032232273034e-19              3                                    0                                  1                                   1                                      4                                   1.4758805813247275e-17          1.4132245503703004e-18             19.514285411176679                     23.832877308341594                       23.832877308341594               3                            3                          0                    0.79564310359308654  0.53501187113667681  0.26907158421558547
                 1041270.8335363015                1.4815947403803949e-17            -1.3560829598136238e-18              4                                    0                                  1                                   1                                      5                                   1.4279984052942239e-17          5.3596335086171184e-19             13.980395260747114                     23.832877308341594                       23.832877308341594               4                            4                          0                    0.79714926382875928  0.53614554500756106  0.26885753600902396
                 1035592.6519246263                1.4808891288445842e-17            -7.0561153581084102e-21              5                                    0                                  2                                   0                                      6                                   1.427525102423986e-17          5.3364026420598234e-19             13.97607884492786                      23.832877308341594                       23.832877308341594               5                            5                          0                    0.79715508204778296  0.53615225855562954  0.26884792469534252
                 995783.05067999836                1.4760384085312619e-17            -4.8507203133222609e-20              6                                    0                                  2                                   0                                      7                                   1.4242117298400651e-17          5.1826678691196937e-19             13.948361618553159                     23.832877308341594                       23.832877308341594               6                            6                          0                    0.7971934048018573   0.53619762630973966  0.26877982880133511
                 869545.63490866777                1.4428397134325327e-17            -3.3198695098729233e-19              7                                    0                                  2                                   0                                      8                                   1.3977136705962838e-17          4.5126042836248991e-19             13.93637864683819                      23.832877308341594                       23.832877308341594               7                            7                          0                    0.79734839022139359  0.53645808103506509  0.26818395932205957
                 758398.84195138747                1.4039033756423791e-17            -3.8936337790153719e-19              8                                    0                                  2                                   0                                      9                                   1.3330387648071967e-17          7.0864610835182317e-19             15.858184156327388                     23.832877308341594                       23.832877308341594               8                            8                          0                    0.7965847326916119   0.53632754790190007  0.26633772639411762
                 752172.85965132096                1.4035241463133696e-17            -3.7922932900929421e-21              9                                    0                                  3                                   0                                      10                                  1.3328536196612794e-17          7.0670526652090257e-19             15.883448496664901                     23.832877308341594                       23.832877308341594               9                            9                          0                    0.79658250582392665  0.53632982271841256  0.26632300463523811
                 708573.52039387182                1.4009357459673582e-17            -2.5884003460115487e-20              10                                   0                                  3                                   0                                      11                                  1.3315571611942471e-17          6.9378584773111063e-19             16.060283443012882                     23.832877308341594                       23.832877308341594               10                           10                         0                    0.79656513962084952  0.53634454358079797  0.26621936701076537
# Table End
