# ODT 1.0
# Table Start
# Title: mmArchive Data Table, Wed Jun 16 18:59:45 EDT 2010
# Columns: {Oxs_CGEvolve:evolve:Max mxHxm} {Oxs_CGEvolve:evolve:Total energy} {Oxs_CGEvolve:evolve:Delta E} {Oxs_CGEvolve:evolve:Bracket count} {Oxs_CGEvolve:evolve:Line min count} {Oxs_CGEvolve:evolve:Cycle count} {Oxs_CGEvolve:evolve:Cycle sub count} {Oxs_CGEvolve:evolve:Energy calc count} Oxs_UniaxialAnisotropy::Energy Oxs_UniformExchange::Energy {Oxs_UniformExchange::Max Spin Ang} {Oxs_UniformExchange::Stage Max Spin Ang} {Oxs_UniformExchange::Run Max Spin Ang} Oxs_MinDriver::Iteration {Oxs_MinDriver::Stage iteration} Oxs_MinDriver::Stage Oxs_MinDriver::mx    Oxs_MinDriver::my    Oxs_MinDriver::mz   
# Units:                 A/m                               J                                J                               {}                                   {}                                 {}                                  {}                                     {}                                  J                             J                              deg                                    deg                                      deg                              {}                           {}                         {}                 {}                   {}                   {}           
                 3137512.456429325                 5.7718769249606101e-17             5.7718769249606101e-17              0                                    0                                  1                                   1                                      1                                   4.9170888338699707e-17          8.5478809109064028e-18             23.238131831351275                     23.238131831351275                       23.238131831351275               0                            0                          0                    0.79486053154209402  0.53361318758138188  0.26909444467422144
                 3126184.6126873656                5.7660301995897745e-17            -5.8467253708363261e-20              1                                    0                                  1                                   1                                      2                                   4.9160967308532524e-17          8.4993346873652209e-18             23.177651931088207                     23.238131831351275                       23.238131831351275               1                            1                          0                    0.79488001093696381  0.53362569065880405  0.2690999595998832 
                 3046730.60439076                  5.7255961429407904e-17            -4.0434056648983912e-19              2                                    0                                  1                                   1                                      3                                   4.9091518108872994e-17          8.1644433205349073e-18             22.757110464742535                     23.238131831351275                       23.238131831351275               2                            2                          0                    0.7950145792332175   0.53371198902062633  0.26913795491685982
                 2402461.8387596766                5.4333688741435277e-17            -2.9222726879726282e-18              3                                    0                                  1                                   1                                      4                                   4.853619233544519e-17          5.797496405990085e-18             20.443310248685364                     23.238131831351275                       23.238131831351275               3                            3                          0                    0.79597808271569426  0.53432530662922828  0.26940345328073156
                 1312012.9921407332                4.9528861081358335e-17            -4.8048276600769403e-18              4                                    0                                  1                                   1                                      5                                   4.7178347997124721e-17          2.3505130842336135e-18             16.790786137362076                     23.238131831351275                       23.238131831351275               4                            4                          0                    0.79748952517095217  0.53525512359811811  0.26976547124596478
                 1309179.8369495203                4.9501639785148978e-17            -2.7221296209357803e-20              5                                    0                                  2                                   0                                      6                                   4.7164986724488588e-17          2.3366530606603933e-18             16.776436406646514                     23.238131831351275                       23.238131831351275               5                            5                          0                    0.79749922031194476  0.53525855641494069  0.26976592927829818
                 1289257.9597385156                4.9314716409728946e-17            -1.8692337542003e-19              6                                    0                                  2                                   0                                      7                                   4.7071442696647683e-17          2.2432737130812626e-18             16.676001905073907                     23.238131831351275                       23.238131831351275               6                            6                          0                    0.79756507511271857  0.53528122728093896  0.26976845221262824
                 1124480.3568432741                4.8048608642706896e-17            -1.2661077670220541e-18              7                                    0                                  2                                   0                                      8                                   4.6322758640416524e-17          1.7258500022903692e-18             15.873452550261147                     23.238131831351275                       23.238131831351275               7                            7                          0                    0.79796497935224464  0.53537714177147344  0.26974565542693629
                 771741.86751341308                4.6677599057546966e-17            -1.371009585159925e-18              8                                    0                                  2                                   0                                      9                                   4.448924969473382e-17          2.1883493628131499e-18             15.863469738691533                     23.238131831351275                       23.238131831351275               8                            8                          0                    0.7979870069755477   0.53497202350671291  0.26936650492530201
                 761595.14101976925                4.6665482171948799e-17            -1.2116885598167397e-20              9                                    0                                  3                                   0                                      10                                  4.448413781794781e-17          2.181344354000994e-18             15.871998764483553                     23.238131831351275                       23.238131831351275               9                            9                          0                    0.79799086871639435  0.53496789217672824  0.26936259164828846
                 730695.26071700023                4.6583507231052943e-17            -8.1974940895859377e-20              10                                   0                                  3                                   0                                      11                                  4.4448367063180345e-17          2.1351401678725955e-18             15.932324913915011                     23.238131831351275                       23.238131831351275               10                           10                         0                    0.79801637206020681  0.5349379468565939   0.26933468407629851
# Table End
