# ODT 1.0
# Table Start
# Title: mmArchive Data Table, Wed Jun 16 18:59:24 EDT 2010
# Columns: {Oxs_CGEvolve:evolve:Max mxHxm} {Oxs_CGEvolve:evolve:Total energy} {Oxs_CGEvolve:evolve:Delta E} {Oxs_CGEvolve:evolve:Bracket count} {Oxs_CGEvolve:evolve:Line min count} {Oxs_CGEvolve:evolve:Cycle count} {Oxs_CGEvolve:evolve:Cycle sub count} {Oxs_CGEvolve:evolve:Energy calc count} Oxs_UniaxialAnisotropy::Energy Oxs_UniformExchange::Energy {Oxs_UniformExchange::Max Spin Ang} {Oxs_UniformExchange::Stage Max Spin Ang} {Oxs_UniformExchange::Run Max Spin Ang} Oxs_MinDriver::Iteration {Oxs_MinDriver::Stage iteration} Oxs_MinDriver::Stage Oxs_MinDriver::mx    Oxs_MinDriver::my    Oxs_MinDriver::mz   
# Units:                 A/m                               J                                J                               {}                                   {}                                 {}                                  {}                                     {}                                  J                             J                              deg                                    deg                                      deg                              {}                           {}                         {}                 {}                   {}                   {}           
                 2748893.8913447321                5.1972378424426615e-17             5.1972378424426615e-17              0                                    0                                  1                                   1                                      1                                   4.4776947648250659e-17          7.1954307761759589e-18             24.162177777666948                     24.162177777666948                       24.162177777666948               0                            0                          0                    0.79514299943138589  0.53327411777049993  0.26907868974539872
                 2739653.6011184072                5.1919763060185475e-17            -5.2615364241143667e-20              1                                    0                                  1                                   1                                      2                                   4.476809852059297e-17          7.1516645395925034e-18             24.093741678158029                     24.162177777666948                       24.162177777666948               1                            1                          0                    0.79516223492058724  0.53328702088771274  0.26908848286980469
                 2674818.4136203052                5.1556328734346856e-17            -3.6343432583861777e-19              2                                    0                                  1                                   1                                      3                                   4.4706130076686781e-17          6.850198657660078e-18             23.614904376196133                     24.162177777666948                       24.162177777666948               2                            2                          0                    0.79529479526557023  0.53337592826000668  0.26915632346045487
                 2147476.7184019228                4.8957767043680186e-17            -2.5985616906666713e-18              3                                    0                                  1                                   1                                      4                                   4.4209250552404114e-17          4.7485164912760676e-18             20.067452148732897                     24.162177777666948                       24.162177777666948               3                            3                          0                    0.79622332746321034  0.53399793041661658  0.26965408977145566
                 1266476.2571160423                4.4923006687254179e-17            -4.0347603564260075e-18              4                                    0                                  1                                   1                                      5                                   4.2985540991931068e-17          1.937465695323112e-18             17.903738356634612                     24.162177777666948                       24.162177777666948               4                            4                          0                    0.79750733057259449  0.53485441941905176  0.27053851163005549
                 1261156.2050033063                4.4904272086539469e-17            -1.8734600714710116e-20              5                                    0                                  2                                   0                                      6                                   4.2975217288753208e-17          1.9290547977862621e-18             17.8820870431571                       24.162177777666948                       24.162177777666948               5                            5                          0                    0.7975115529740946   0.5348567427236377   0.27054710880179694
                 1223836.7035471504                4.4775349358543545e-17            -1.2892272799592501e-19              6                                    0                                  2                                   0                                      7                                   4.2902917976391963e-17          1.8724313821515788e-18             17.730537132106168                     24.162177777666948                       24.162177777666948               6                            6                          0                    0.79753948652983653  0.53487190641563909  0.270606736174831  
                 935072.97306738421                4.3884304704156859e-17            -8.9104465438668543e-19              7                                    0                                  2                                   0                                      8                                   4.2322814399335516e-17          1.5614903048213429e-18             16.518952657108027                     24.162177777666948                       24.162177777666948               7                            7                          0                    0.79766056845457911  0.5349240676514595   0.2710488985543627 
                 821742.78061690181                4.2759759481863188e-17            -1.124545222293668e-18              8                                    0                                  2                                   0                                      9                                   4.0889156054204928e-17          1.8706034276582627e-18             18.623060742042245                     24.162177777666948                       24.162177777666948               8                            8                          0                    0.79718240690903741  0.53453280121983671  0.27187483382414956
                 820621.06029438612                4.2752734665543732e-17            -7.0248163194555214e-21              9                                    0                                  3                                   0                                      10                                  4.0884181269536816e-17          1.8685533960069176e-18             18.622100761874719                     24.162177777666948                       24.162177777666948               9                            9                          0                    0.79717902855202538  0.53452851922496825  0.27188450851849588
                 812695.00455191731                4.2704685438621193e-17            -4.8049226922539499e-20              10                                   0                                  3                                   0                                      11                                  4.0849342707109381e-17          1.8553427315118121e-18             18.615359079409                        24.162177777666948                       24.162177777666948               10                           10                         0                    0.79715444084826081  0.5344979124391368   0.27195190871817004
# Table End
