# ODT 1.0
# Table Start
# Title: mmArchive Data Table, Wed Jun 16 18:59:51 EDT 2010
# Columns: {Oxs_CGEvolve:evolve:Max mxHxm} {Oxs_CGEvolve:evolve:Total energy} {Oxs_CGEvolve:evolve:Delta E} {Oxs_CGEvolve:evolve:Bracket count} {Oxs_CGEvolve:evolve:Line min count} {Oxs_CGEvolve:evolve:Cycle count} {Oxs_CGEvolve:evolve:Cycle sub count} {Oxs_CGEvolve:evolve:Energy calc count} Oxs_UniaxialAnisotropy::Energy Oxs_UniformExchange::Energy {Oxs_UniformExchange::Max Spin Ang} {Oxs_UniformExchange::Stage Max Spin Ang} {Oxs_UniformExchange::Run Max Spin Ang} Oxs_MinDriver::Iteration {Oxs_MinDriver::Stage iteration} Oxs_MinDriver::Stage Oxs_MinDriver::mx    Oxs_MinDriver::my    Oxs_MinDriver::mz   
# Units:                 A/m                               J                                J                               {}                                   {}                                 {}                                  {}                                     {}                                  J                             J                              deg                                    deg                                      deg                              {}                           {}                         {}                 {}                   {}                   {}           
                 3243033.9151786785                7.3833675848449659e-17             7.3833675848449659e-17              0                                    0                                  1                                   1                                      1                                   6.2628833554504978e-17          1.1204842293944682e-17             23.832877308341594                     23.832877308341594                       23.832877308341594               0                            0                          0                    0.79482689634087222  0.53387900725666315  0.26883387228664002
                 3230436.9475047574                7.3757734870060511e-17            -7.5940978389150428e-20              1                                    0                                  1                                   1                                      2                                   6.2616172524463594e-17          1.1141562345596917e-17             23.768773333941763                     23.832877308341594                       23.832877308341594               1                            1                          0                    0.79484669097321592  0.53389105784853386  0.26884046611610535
                 3142050.3539350391                7.3232455280702321e-17            -5.2527958935819564e-19              2                                    0                                  1                                   1                                      3                                   6.2527547672874652e-17          1.0704907607827669e-17             23.320051575203831                     23.832877308341594                       23.832877308341594               2                            2                          0                    0.79498346939107611  0.53397418189151025  0.26888600790444389
                 2486855.7103324928                6.9429886659765141e-17            -3.8025686209371716e-18              3                                    0                                  1                                   1                                      4                                   6.1819211182699422e-17          7.6106754770657253e-18             19.732242756465709                     23.832877308341594                       23.832877308341594               3                            3                          0                    0.79596484744038309  0.53456169114950203  0.26921156738977181
                 1273068.8258887872                6.3125056574994292e-17            -6.3048300847708547e-18              4                                    0                                  1                                   1                                      5                                   6.0090040857553556e-17          3.035015717440733e-18             15.60692245651798                      23.832877308341594                       23.832877308341594               4                            4                          0                    0.79752095674042489  0.53542510664194676  0.2697205955219239 
                 1267092.0694211894                6.3087572886930258e-17            -3.7483688064032135e-20              5                                    0                                  2                                   0                                      6                                   6.0072523696324323e-17          3.0150491906059375e-18             15.573752438674784                     23.832877308341594                       23.832877308341594               5                            5                          0                    0.79753101031240503  0.53542833468607498  0.26972342317065118
                 1225173.9847782531                6.2830818653013721e-17            -2.5675423391654179e-19              6                                    0                                  2                                   0                                      7                                   5.9949888513335246e-17          2.8809301396784723e-18             15.34190940920489                      23.832877308341594                       23.832877308341594               6                            6                          0                    0.79759911465133171  0.53544938779972429  0.26974244377883183
                 885340.19344237901                6.1132840440396774e-17            -1.6979782126169444e-18              7                                    0                                  2                                   0                                      8                                   5.8968751975154794e-17          2.1640884652419721e-18             13.512927687501957                     23.832877308341594                       23.832877308341594               7                            7                          0                    0.79800055775517342  0.53552085609673727  0.26984603037320559
                 796857.10471828061                5.9660571830583187e-17            -1.472268609813584e-18              8                                    0                                  2                                   0                                      9                                   5.657071652021986e-17          3.0898553103633259e-18             14.271835703855455                     23.832877308341594                       23.832877308341594               8                            8                          0                    0.79790029044751942  0.53497169755931495  0.26973759624374632
                 710736.17078919755                5.9633926750204648e-17            -2.6645080378535203e-20              8                                    1                                  2                                   0                                      10                                  5.6850107687008594e-17          2.7838190631960552e-18             14.028922959819868                     23.832877308341594                       23.832877308341594               9                            9                          0                    0.79799227601291478  0.53508895828360648  0.26977677564883412
                 544069.80493571248                5.8529945176774974e-17            -1.1039815734296803e-18              9                                    1                                  3                                   1                                      11                                  5.4939821602123041e-17          3.5901235746519304e-18             17.356439495375632                     23.832877308341594                       23.832877308341594               10                           10                         0                    0.79734745280876418  0.53359970441506754  0.26943020649645733
# Table End
