# ODT 1.0
# Table Start
# Title: mmArchive Data Table, Wed Jun 16 18:59:21 EDT 2010
# Columns: {Oxs_CGEvolve:evolve:Max mxHxm} {Oxs_CGEvolve:evolve:Total energy} {Oxs_CGEvolve:evolve:Delta E} {Oxs_CGEvolve:evolve:Bracket count} {Oxs_CGEvolve:evolve:Line min count} {Oxs_CGEvolve:evolve:Cycle count} {Oxs_CGEvolve:evolve:Cycle sub count} {Oxs_CGEvolve:evolve:Energy calc count} Oxs_UniaxialAnisotropy::Energy Oxs_UniformExchange::Energy {Oxs_UniformExchange::Max Spin Ang} {Oxs_UniformExchange::Stage Max Spin Ang} {Oxs_UniformExchange::Run Max Spin Ang} Oxs_MinDriver::Iteration {Oxs_MinDriver::Stage iteration} Oxs_MinDriver::Stage Oxs_MinDriver::mx    Oxs_MinDriver::my    Oxs_MinDriver::mz   
# Units:                 A/m                               J                                J                               {}                                   {}                                 {}                                  {}                                     {}                                  J                             J                              deg                                    deg                                      deg                              {}                           {}                         {}                 {}                   {}                   {}           
                 1422839.6325461369                9.402371830063915e-18             9.402371830063915e-18              0                                    0                                  1                                   1                                      1                                   8.8166226609870869e-18          5.8574916907682827e-19             21.750799576498515                     21.750799576498515                       21.750799576498515               0                            0                          0                    0.79551369831779695  0.53276391480453911  0.2697070068530974 
                 1418859.4948864379                9.396397099194113e-18            -5.9747308698022433e-21              1                                    0                                  1                                   1                                      2                                   8.8131346355098582e-18          5.832624636842539e-19             21.72325715412256                      21.750799576498515                       21.750799576498515               1                            1                          0                    0.79553103846036022  0.53276396435476914  0.26971366930025403
                 1390906.9475650208                9.3549414139145368e-18            -4.1455685279574761e-20              2                                    0                                  1                                   1                                      3                                   8.7887197111303111e-18          5.662217027842259e-19             21.530466997767231                     21.750799576498515                       21.750799576498515               2                            2                          0                    0.79565024024970532  0.53276281787032742  0.26975955319817546
                 1161961.2852786107                9.0467006405240628e-18            -3.0824077339047422e-19              3                                    0                                  1                                   1                                      4                                   8.5936641284280728e-18          4.5303651209599052e-19             19.988935620855305                     21.750799576498515                       21.750799576498515               3                            3                          0                    0.79646586496948857  0.53266014866008504  0.27007927199953025
                 814178.19823994674                8.4691558561151107e-18            -5.7754478440895253e-19              4                                    0                                  1                                   1                                      5                                   8.1191196212359025e-18          3.5003623487920824e-19             18.331187671308808                     21.750799576498515                       21.750799576498515               4                            4                          0                    0.79741927849429384  0.5317155219337012   0.27051268017005792
                 811685.64379377756                8.4654908845354831e-18            -3.664971579627764e-21              5                                    0                                  2                                   0                                      6                                   8.1152545252760018e-18          3.5023635925948168e-19             18.354153663106128                     21.750799576498515                       21.750799576498515               5                            5                          0                    0.79742164853703734  0.53169877461630388  0.27051707615647952
                 794159.18971597718                8.4400926116623552e-18            -2.5398272873128364e-20              6                                    0                                  2                                   0                                      7                                   8.0881967326663835e-18          3.5189587899597186e-19             18.515473669560986                     21.750799576498515                       21.750799576498515               6                            6                          0                    0.79743586625530893  0.5315799919009967   0.27054703835441918
                 719787.93524328317                8.2532800108142503e-18            -1.8681260084810425e-19              7                                    0                                  2                                   0                                      8                                   7.871840832088109e-18          3.8143917872614079e-19             19.838369467145593                     21.750799576498515                       21.750799576498515               7                            7                          0                    0.79739996281622672  0.53053301170879308  0.27073565412356371
                 572644.83017722971                7.9210578467257797e-18            -3.3222216408847071e-19              8                                    0                                  2                                   0                                      9                                   7.3449415146405164e-18          5.7611633208526337e-19             23.348926384707696                     23.348926384707696                       23.348926384707696               8                            8                          0                    0.79617986695263521  0.52724699943629105  0.27081425591877389
                 572064.79515045451                7.9191997860732579e-18            -1.8580606525218773e-21              9                                    0                                  3                                   0                                      10                                  7.342255365059824e-18          5.7694442101343432e-19             23.357007767415698                     23.357007767415698                       23.357007767415698               9                            9                          0                    0.79617055096195699  0.52722070714513969  0.27081896507827496
                 567937.68945634144                7.9062887565620391e-18            -1.2911029511218185e-20              10                                   0                                  3                                   0                                      11                                  7.32344835600157e-18          5.8284040056046962e-19             23.413576248944249                     23.413576248944249                       23.413576248944249               10                           10                         0                    0.79610362997447093  0.5270355748148311   0.27085134404225614
# Table End
