# ODT 1.0
# Table Start
# Title: mmArchive Data Table, Wed Jun 16 18:59:42 EDT 2010
# Columns: {Oxs_CGEvolve:evolve:Max mxHxm} {Oxs_CGEvolve:evolve:Total energy} {Oxs_CGEvolve:evolve:Delta E} {Oxs_CGEvolve:evolve:Bracket count} {Oxs_CGEvolve:evolve:Line min count} {Oxs_CGEvolve:evolve:Cycle count} {Oxs_CGEvolve:evolve:Cycle sub count} {Oxs_CGEvolve:evolve:Energy calc count} Oxs_UniaxialAnisotropy::Energy Oxs_UniformExchange::Energy {Oxs_UniformExchange::Max Spin Ang} {Oxs_UniformExchange::Stage Max Spin Ang} {Oxs_UniformExchange::Run Max Spin Ang} Oxs_MinDriver::Iteration {Oxs_MinDriver::Stage iteration} Oxs_MinDriver::Stage Oxs_MinDriver::mx    Oxs_MinDriver::my    Oxs_MinDriver::mz   
# Units:                 A/m                               J                                J                               {}                                   {}                                 {}                                  {}                                     {}                                  J                             J                              deg                                    deg                                      deg                              {}                           {}                         {}                 {}                   {}                   {}           
                 2903095.7700213138                2.8705369393572409e-17             2.8705369393572409e-17              0                                    0                                  1                                   1                                      1                                   2.4877581262239187e-17          3.8277881313332199e-18             21.847422672350863                     21.847422672350863                       21.847422672350863               0                            0                          0                    0.79519853034700616  0.53249481336726667  0.27047944291912862
                 2893571.3977507739                2.867950068037789e-17            -2.5868713194520502e-20              1                                    0                                  1                                   1                                      2                                   2.4872270641261464e-17          3.8072300391164238e-18             21.825690591411998                     21.847422672350863                       21.847422672350863               1                            1                          0                    0.7952157787512546   0.53250472130312687  0.27049001917985954
                 2826758.8415220128                2.8500509807853915e-17            -1.7899087252397338e-19              2                                    0                                  1                                   1                                      3                                   2.4835107558398957e-17          3.6654022494549563e-18             21.673837707266483                     21.847422672350863                       21.847422672350863               2                            2                          0                    0.79533485940169357  0.53257292504082887  0.2705634782698923 
                 2284311.6937307972                2.7201050088473853e-17            -1.2994597193800598e-18              3                                    0                                  1                                   1                                      4                                   2.4538703977487073e-17          2.6623461109867817e-18             20.477392536521393                     21.847422672350863                       21.847422672350863               3                            3                          0                    0.79618255122830761  0.53304615364640062  0.27111482386801944
                 1273423.3977837292                2.5015218680682794e-17            -2.1858314077910591e-18              4                                    0                                  1                                   1                                      5                                   2.3819301700141219e-17          1.1959169805415757e-18             17.702850891221846                     21.847422672350863                       21.847422672350863               4                            4                          0                    0.79746804914148495  0.53366982087825865  0.27219684984836306
                 1268118.3176984561                2.5002226862663003e-17            -1.2991818019792838e-20              5                                    0                                  2                                   0                                      6                                   2.3812055853254556e-17          1.190171009408445e-18             17.67966671759417                      21.847422672350863                       21.847422672350863               5                            5                          0                    0.7974738737938396   0.53367039476938438  0.27220888584052633
                 1230899.2573557664                2.491286565528334e-17            -8.9361207379662047e-20              6                                    0                                  2                                   0                                      7                                   2.3761348365454961e-17          1.1515172898283792e-18             17.5182139425151                       21.847422672350863                       21.847422672350863               6                            6                          0                    0.79751272103463211  0.53367310770566867  0.27229247378335908
                 928502.31839514326                2.4298056092317546e-17            -6.1480956296579458e-19              7                                    0                                  2                                   0                                      8                                   2.3356882079171139e-17          9.411740131464063e-19             16.284168082904348                     21.847422672350863                       21.847422672350863               7                            7                          0                    0.79770199440920342  0.5336129281804538   0.2729192091697204 
                 497394.11827979883                2.3547665235371532e-17            -7.5039085694601521e-19              8                                    0                                  2                                   0                                      9                                   2.2376917938949848e-17          1.1707472964216831e-18             16.346467841196461                     21.847422672350863                       21.847422672350863               8                            8                          0                    0.7972465507215587   0.53285328319164982  0.27414427664720692
                 492817.03278873814                2.3540446251431794e-17            -7.218983939736452e-21              9                                    0                                  3                                   0                                      10                                  2.2371844411733155e-17          1.1686018396986385e-18             16.366714997873924                     21.847422672350863                       21.847422672350863               9                            9                          0                    0.79724057434266649  0.5328430671834864   0.2741671353344346 
                 480346.276787968                  2.3491814189676671e-17            -4.8632061755124165e-20              10                                   0                                  3                                   0                                      11                                  2.2336339047429169e-17          1.1554751422475007e-18             16.508556667487124                     21.847422672350863                       21.847422672350863               10                           10                         0                    0.79719598298713978  0.53276972102820319  0.27432618523140689
# Table End
