# ODT 1.0
# Table Start
# Title: mmArchive Data Table, Wed Jun 16 18:59:25 EDT 2010
# Columns: {Oxs_CGEvolve:evolve:Max mxHxm} {Oxs_CGEvolve:evolve:Total energy} {Oxs_CGEvolve:evolve:Delta E} {Oxs_CGEvolve:evolve:Bracket count} {Oxs_CGEvolve:evolve:Line min count} {Oxs_CGEvolve:evolve:Cycle count} {Oxs_CGEvolve:evolve:Cycle sub count} {Oxs_CGEvolve:evolve:Energy calc count} Oxs_UniaxialAnisotropy::Energy Oxs_UniformExchange::Energy {Oxs_UniformExchange::Max Spin Ang} {Oxs_UniformExchange::Stage Max Spin Ang} {Oxs_UniformExchange::Run Max Spin Ang} Oxs_MinDriver::Iteration {Oxs_MinDriver::Stage iteration} Oxs_MinDriver::Stage Oxs_MinDriver::mx    Oxs_MinDriver::my    Oxs_MinDriver::mz   
# Units:                 A/m                               J                                J                               {}                                   {}                                 {}                                  {}                                     {}                                  J                             J                              deg                                    deg                                      deg                              {}                           {}                         {}                 {}                   {}                   {}           
                 3122953.637189162                 5.8313065991283718e-17             5.8313065991283718e-17              0                                    0                                  1                                   1                                      1                                   4.9765185080377318e-17          8.5478809109064028e-18             23.238131831351275                     23.238131831351275                       23.238131831351275               0                            0                          0                    0.79486053154209402  0.53361318758138188  0.26909444467422144
                 3111693.0087860813                5.8254109601361107e-17            -5.8956389922614798e-20              1                                    0                                  1                                   1                                      2                                   4.9755033133773194e-17          8.4990764675879098e-18             23.176800893416544                     23.238131831351275                       23.238131831351275               1                            1                          0                    0.79488011554305205  0.53362572302498434  0.26910001623004015
                 3032711.6383085437                5.7846405191953216e-17            -4.0770440940789347e-19              2                                    0                                  1                                   1                                      3                                   4.968396756921242e-17          8.1624376227407895e-18             22.754945159891573                     23.238131831351275                       23.238131831351275               2                            2                          0                    0.79501539278481859  0.53371223184251482  0.2691383999223706 
                 2392351.6537019196                5.4901040871946971e-17            -2.9453643200062414e-18              3                                    0                                  1                                   1                                      4                                   4.9115724223246436e-17          5.7853166487005333e-18             20.459642370210556                     23.238131831351275                       23.238131831351275               3                            3                          0                    0.79598309387715005  0.53432621868459218  0.2694064960140139 
                 1247946.0464502955                5.0068682492630612e-17            -4.8323583793163563e-18              4                                    0                                  1                                   1                                      5                                   4.7726376870463526e-17          2.3423056221670884e-18             16.593858682092076                     23.238131831351275                       23.238131831351275               4                            4                          0                    0.79749365202165134  0.53525006423469434  0.26977101571689927
                 1245068.0489698213                5.004014834094504e-17            -2.8534151685572812e-20              5                                    0                                  2                                   0                                      6                                   4.7712119540519094e-17          2.3280288004259482e-18             16.540298174035303                     23.238131831351275                       23.238131831351275               5                            5                          0                    0.79750370331794118  0.53525349790616172  0.26977151702582547
                 1224839.1259316173                4.9844382686802182e-17            -1.9576565414285787e-19              6                                    0                                  2                                   0                                      7                                   4.7612302231211408e-17          2.2320804555907704e-18             16.290651059893555                     23.238131831351275                       23.238131831351275               6                            6                          0                    0.79757184563906847  0.53527603595815265  0.26977427316093655
                 1058049.3172971106                4.8529564828382911e-17            -1.3148178584192686e-18              7                                    0                                  2                                   0                                      8                                   4.6813479069950137e-17          1.7160857584327752e-18             15.326662892734396                     23.238131831351275                       23.238131831351275               7                            7                          0                    0.797977069682964    0.535362171960442    0.26974896998700665
                 823625.43137727224                4.7206335530232575e-17            -1.3232292981503353e-18              8                                    0                                  2                                   0                                      9                                   4.4859128087744608e-17          2.3472074424879712e-18             15.363442280614219                     23.238131831351275                       23.238131831351275               8                            8                          0                    0.79791410567116794  0.53486819274598429  0.26933132458636833
                 651132.29123576172                4.6243628658255563e-17            -9.6270687197701684e-19              9                                    0                                  3                                   1                                      10                                  4.3188591755069495e-17          3.0550369031860682e-18             20.46266638512591                      23.238131831351275                       23.238131831351275               9                            9                          0                    0.79727723983775023  0.53313736002306555  0.26812360513938815
                 468976.65311831643                4.5750295455503614e-17            -4.9333320275194852e-19              10                                   0                                  4                                   2                                      11                                  4.210970515998883e-17          3.6405902955147839e-18             25.501205396800458                     25.501205396800458                       25.501205396800458               10                           10                         0                    0.79646818024920518  0.53100237251161309  0.26656565936711873
# Table End
