# ODT 1.0
# Table Start
# Title: mmArchive Data Table, Wed Jun 16 18:59:30 EDT 2010
# Columns: {Oxs_CGEvolve:evolve:Max mxHxm} {Oxs_CGEvolve:evolve:Total energy} {Oxs_CGEvolve:evolve:Delta E} {Oxs_CGEvolve:evolve:Bracket count} {Oxs_CGEvolve:evolve:Line min count} {Oxs_CGEvolve:evolve:Cycle count} {Oxs_CGEvolve:evolve:Cycle sub count} {Oxs_CGEvolve:evolve:Energy calc count} Oxs_UniaxialAnisotropy::Energy Oxs_UniformExchange::Energy {Oxs_UniformExchange::Max Spin Ang} {Oxs_UniformExchange::Stage Max Spin Ang} {Oxs_UniformExchange::Run Max Spin Ang} Oxs_MinDriver::Iteration {Oxs_MinDriver::Stage iteration} Oxs_MinDriver::Stage Oxs_MinDriver::mx    Oxs_MinDriver::my    Oxs_MinDriver::mz   
# Units:                 A/m                               J                                J                               {}                                   {}                                 {}                                  {}                                     {}                                  J                             J                              deg                                    deg                                      deg                              {}                           {}                         {}                 {}                   {}                   {}           
                 2824055.5323816035                1.0596304855415031e-16             1.0596304855415031e-16              0                                    0                                  1                                   1                                      1                                   8.9952346298839595e-17          1.6010702255310718e-17             23.607201693706042                     23.607201693706042                       23.607201693706042               0                            0                          0                    0.79384167144845108  0.53541883955940528  0.26899688987892817
                 2815873.0083351955                1.0584023320174079e-16            -1.2281535240952655e-19              1                                    0                                  1                                   1                                      2                                   8.9931930013344013e-17          1.5908303188396773e-17             23.549624462284442                     23.607201693706042                       23.607201693706042               1                            1                          0                    0.79386420355192311  0.53543168009549624  0.26900321171072122
                 2758435.720727847                 1.0499237569599574e-16            -8.4785750574504785e-19              2                                    0                                  1                                   1                                      3                                   8.9789036774302277e-17          1.5203338921693461e-17             23.146652503684162                     23.607201693706042                       23.607201693706042               2                            2                          0                    0.79401964117023704  0.53551999626686864  0.26904668010621308
                 2289744.9796798052                9.8960576554985389e-17            -6.0317991410103461e-18              3                                    0                                  1                                   1                                      4                                   8.8648213339267574e-17          1.031236321571782e-17             19.9295417044335                       23.607201693706042                       23.607201693706042               3                            3                          0                    0.7951184884832303   0.53612772868343916  0.26934496360108617
                 1160620.9350411543                8.9854131568071913e-17            -9.1064449869134777e-18              4                                    0                                  1                                   1                                      5                                   8.5877069832872298e-17          3.9770617351996182e-18             14.689737923867265                     23.607201693706042                       23.607201693706042               4                            4                          0                    0.79672273932826487  0.53687967239278034  0.26970607062638097
                 1157254.5845838308                8.9812129581647227e-17            -4.2001986424688961e-20              5                                    0                                  2                                   0                                      6                                   8.5854104240538553e-17          3.9580253411086749e-18             14.666045746277129                     23.607201693706042                       23.607201693706042               5                            5                          0                    0.79673188164681963  0.53688033011931802  0.26970551580513408
                 1133614.8039963471                8.9524174840778815e-17            -2.8795474086841061e-19              6                                    0                                  2                                   0                                      7                                   8.5693345249448709e-17          3.8308295913301054e-18             14.500417443908519                     23.607201693706042                       23.607201693706042               6                            6                          0                    0.79679395528562735  0.53688362963794634  0.26970097966043338
                 940073.71619620442                8.7603500300482377e-17            -1.9206745402964374e-18              7                                    0                                  2                                   0                                      8                                   8.4408263018862998e-17          3.1952372816193767e-18             13.953128556520973                     23.607201693706042                       23.607201693706042               7                            7                          0                    0.79716924293901703  0.53682797125776305  0.26962366563572299
                 649610.38006065716                8.5787990926182781e-17            -1.8155093742995939e-18              8                                    0                                  2                                   0                                      9                                   8.1270804221237885e-17          4.5171867049448997e-18             17.465573472402852                     23.607201693706042                       23.607201693706042               8                            8                          0                    0.79717410621496199  0.53607419329250139  0.26912501335536948
                 527235.2787783941                 8.4575672000274884e-17            -1.2123189259078978e-18              9                                    0                                  3                                   1                                      10                                  7.9007880904579528e-17          5.5677910956953624e-18             20.827170354479215                     23.607201693706042                       23.607201693706042               9                            9                          0                    0.79682208966462043  0.53420639786860835  0.26781783453187868
                 384505.43910790118                8.4524656488641841e-17            -5.1015511633049019e-20              9                                    1                                  3                                   1                                      11                                  7.9383019465423101e-17          5.1416370232187396e-18             20.263420996890758                     23.607201693706042                       23.607201693706042               10                           10                         0                    0.79699540727241958  0.53459472851619205  0.26807393179550104
# Table End
