# ODT 1.0
# Table Start
# Title: mmArchive Data Table, Wed Jun 16 18:59:54 EDT 2010
# Columns: {Oxs_CGEvolve:evolve:Max mxHxm} {Oxs_CGEvolve:evolve:Total energy} {Oxs_CGEvolve:evolve:Delta E} {Oxs_CGEvolve:evolve:Bracket count} {Oxs_CGEvolve:evolve:Line min count} {Oxs_CGEvolve:evolve:Cycle count} {Oxs_CGEvolve:evolve:Cycle sub count} {Oxs_CGEvolve:evolve:Energy calc count} Oxs_UniaxialAnisotropy::Energy Oxs_UniformExchange::Energy {Oxs_UniformExchange::Max Spin Ang} {Oxs_UniformExchange::Stage Max Spin Ang} {Oxs_UniformExchange::Run Max Spin Ang} Oxs_MinDriver::Iteration {Oxs_MinDriver::Stage iteration} Oxs_MinDriver::Stage Oxs_MinDriver::mx    Oxs_MinDriver::my    Oxs_MinDriver::mz   
# Units:                 A/m                               J                                J                               {}                                   {}                                 {}                                  {}                                     {}                                  J                             J                              deg                                    deg                                      deg                              {}                           {}                         {}                 {}                   {}                   {}           
                 2970161.3963818401                1.975990727831803e-16             1.975990727831803e-16              0                                    0                                  1                                   1                                      1                                   1.6818584398493931e-16          2.9413228798240993e-17             22.995792189961314                     22.995792189961314                       22.995792189961314               0                            0                          0                    0.79501472213323454  0.53431484196122248  0.26841922003953628
                 2959706.4632717981                1.9738629543644177e-16            -2.1277734673852751e-19              1                                    0                                  1                                   1                                      2                                   1.6815233164384954e-16          2.9233963792592237e-17             22.931883215754276                     22.995792189961314                       22.995792189961314               1                            1                          0                    0.79503522387140524  0.53432827396924154  0.2684236727728293 
                 2886384.6574381934                1.9591636643801578e-16            -1.4699289984259986e-18              2                                    0                                  1                                   1                                      3                                   1.6791774114848633e-16          2.7998625289529455e-17             22.484549215935214                     22.995792189961314                       22.995792189961314               2                            2                          0                    0.79517672457131428  0.53442092023733734  0.26845415343107409
                 2315875.3720593844                1.8539302156948188e-16            -1.0523344868533912e-17              3                                    0                                  1                                   1                                      4                                   1.6604221220073376e-16          1.9350809368748106e-17             19.486793319247848                     22.995792189961314                       22.995792189961314               3                            3                          0                    0.79618153614269838  0.53507525534637623  0.26865460291055487
                 1393062.5130188144                1.6893169271367832e-16            -1.6461328855803545e-17              4                                    0                                  1                                   1                                      5                                   1.6146179789923946e-16          7.4698948144388623e-18             15.442694678077055                     22.995792189961314                       22.995792189961314               4                            4                          0                    0.79768708278376355  0.5360318993037273   0.26882057445959268
                 1388395.2801085152                1.6885988290539539e-16            -7.1809808282937295e-20              5                                    0                                  2                                   0                                      6                                   1.6142490112097588e-16          7.4349817844195175e-18             15.416128609982692                     22.995792189961314                       22.995792189961314               5                            5                          0                    0.79769453883487262  0.53603556835726551  0.26881769088447371
                 1355643.0907578301                1.6836627083247058e-16            -4.9361207292480351e-19              6                                    0                                  2                                   0                                      7                                   1.6116658129308089e-16          7.1996895393896862e-18             15.23079608022775                      22.995792189961314                       22.995792189961314               6                            6                          0                    0.79774526937257628  0.53606026124595008  0.26879701060148425
                 1088998.4809444216                1.6498963889494014e-16            -3.3766319375304404e-18              7                                    0                                  2                                   0                                      8                                   1.5909863133699369e-16          5.8910075579464572e-18             14.226057406978487                     22.995792189961314                       22.995792189961314               7                            7                          0                    0.79805888809060266  0.53619547643911514  0.268600441877688  
                 699454.0702198504                 1.6103059042886235e-16            -3.9590484660777936e-18              8                                    0                                  2                                   0                                      9                                   1.5402043038549138e-16          7.0101600433709556e-18             15.45682709650219                      22.995792189961314                       22.995792189961314               8                            8                          0                    0.79813157526686007  0.53605924562572593  0.26788225006152289
                 697107.94578074676                1.6099967645548652e-16            -3.0913973375839262e-20              9                                    0                                  3                                   0                                      10                                  1.5400350374195537e-16          6.9961727135311395e-18             15.448231683706261                     22.995792189961314                       22.995792189961314               9                            9                          0                    0.79813460780132051  0.53605835680778602  0.26787235934872233
                 680644.32075972226                1.6079002294435092e-16            -2.0965351113560147e-19              10                                   0                                  3                                   0                                      11                                  1.5388501918277206e-16          6.9050037615788518e-18             15.388173102561806                     22.995792189961314                       22.995792189961314               10                           10                         0                    0.79815457743717078  0.53605128680068159  0.26780270167044545
# Table End
