# ODT 1.0
# Table Start
# Title: mmArchive Data Table, Wed Jun 16 18:59:33 EDT 2010
# Columns: {Oxs_CGEvolve:evolve:Max mxHxm} {Oxs_CGEvolve:evolve:Total energy} {Oxs_CGEvolve:evolve:Delta E} {Oxs_CGEvolve:evolve:Bracket count} {Oxs_CGEvolve:evolve:Line min count} {Oxs_CGEvolve:evolve:Cycle count} {Oxs_CGEvolve:evolve:Cycle sub count} {Oxs_CGEvolve:evolve:Energy calc count} Oxs_UniaxialAnisotropy::Energy Oxs_UniformExchange::Energy {Oxs_UniformExchange::Max Spin Ang} {Oxs_UniformExchange::Stage Max Spin Ang} {Oxs_UniformExchange::Run Max Spin Ang} Oxs_MinDriver::Iteration {Oxs_MinDriver::Stage iteration} Oxs_MinDriver::Stage Oxs_MinDriver::mx    Oxs_MinDriver::my    Oxs_MinDriver::mz   
# Units:                 A/m                               J                                J                               {}                                   {}                                 {}                                  {}                                     {}                                  J                             J                              deg                                    deg                                      deg                              {}                           {}                         {}                 {}                   {}                   {}           
                 3482887.3369253101                1.3588650587377546e-16             1.3588650587377546e-16              0                                    0                                  1                                   1                                      1                                   1.1606590651723479e-16          1.9820599356540668e-17             23.832877308341594                     23.832877308341594                       23.832877308341594               0                            0                          0                    0.79515334665837745  0.53386495944885914  0.26865894968103821
                 3472962.2345300717                1.3576508173656759e-16            -1.2142413720787337e-19              1                                    0                                  1                                   1                                      2                                   1.1604656226433161e-16          1.9718519472235989e-17             23.77573311439707                      23.832877308341594                       23.832877308341594               1                            1                          0                    0.79516976928090388  0.53387698354036217  0.26866443057200001
                 3403305.0805245545                1.3492451539167785e-16            -8.4056634488974829e-19              2                                    0                                  1                                   1                                      3                                   1.1591115674394763e-16          1.901335864773021e-17             23.375737395362506                     23.832877308341594                       23.832877308341594               2                            2                          0                    0.79528327601037174  0.53396015767107829  0.26870229892101677
                 2835705.2915445068                1.2879529335805481e-16            -6.1292220336230511e-18              3                                    0                                  1                                   1                                      4                                   1.1482879183698702e-16          1.396650152106778e-17             20.17786224441717                      23.832877308341594                       23.832877308341594               3                            3                          0                    0.79609957332756787  0.53456287415312864  0.26897385320012324
                 1396491.0671305547                1.1825168025928062e-16            -1.054361309877417e-17              4                                    0                                  1                                   1                                      5                                   1.1218149567855205e-16          6.0701845807285793e-18             17.012248546175826                     23.832877308341594                       23.832877308341594               4                            4                          0                    0.79741092595144802  0.53557427766564059  0.26940532367758363
                 1390219.7085546418                1.1818370303598395e-16            -6.7977223296677797e-20              5                                    0                                  2                                   0                                      6                                   1.1215265099077335e-16          6.0310520452105982e-18             16.983280345375885                     23.832877308341594                       23.832877308341594               5                            5                          0                    0.79741856313027026  0.53558153769106365  0.26940727800726233
                 1346248.9809823034                1.177176120895554e-16            -4.6609094642855264e-19              6                                    0                                  2                                   0                                      7                                   1.1195072060062434e-16          5.7668914889310612e-18             16.780766091977675                     23.832877308341594                       23.832877308341594               6                            6                          0                    0.79746997582407986  0.53563096998351156  0.26942026140147218
                 1049346.7113060236                1.1460515672480689e-16            -3.1124553647485105e-18              7                                    0                                  2                                   0                                      8                                   1.1033547412591057e-16          4.2696825988963183e-18             15.664730536493455                     23.832877308341594                       23.832877308341594               7                            7                          0                    0.79775207665954362  0.53593909309222487  0.26948026438771799
                 790542.28908812802                1.1162914195682591e-16            -2.9760147679809842e-18              8                                    0                                  2                                   0                                      9                                   1.0638570762225511e-16          5.2434343345707871e-18             16.306397285721939                     23.832877308341594                       23.832877308341594               8                            8                          0                    0.79746716645911453  0.53604167899624944  0.26929796137681689
                 872021.12494999345                1.1002777149275527e-16            -1.6013704640706346e-18              9                                    0                                  3                                   1                                      10                                  1.0179405457260917e-16          8.2337169201460917e-18             21.248104097098597                     23.832877308341594                       23.832877308341594               9                            9                          0                    0.79537668145553975  0.53556610652311576  0.26819198007730144
                 459516.06152755528                1.0959974227992092e-16            -4.2802921283435248e-19              9                                    1                                  3                                   1                                      11                                  1.0322564718632042e-16          6.3740950936005034e-18             18.337933815440831                     23.832877308341594                       23.832877308341594               10                           10                         0                    0.79633264415415161  0.53591754346002318  0.26864090747770331
# Table End
