# ODT 1.0
# Table Start
# Title: mmArchive Data Table, Wed Jun 16 18:59:50 EDT 2010
# Columns: {Oxs_CGEvolve:evolve:Max mxHxm} {Oxs_CGEvolve:evolve:Total energy} {Oxs_CGEvolve:evolve:Delta E} {Oxs_CGEvolve:evolve:Bracket count} {Oxs_CGEvolve:evolve:Line min count} {Oxs_CGEvolve:evolve:Cycle count} {Oxs_CGEvolve:evolve:Cycle sub count} {Oxs_CGEvolve:evolve:Energy calc count} Oxs_UniaxialAnisotropy::Energy Oxs_UniformExchange::Energy {Oxs_UniformExchange::Max Spin Ang} {Oxs_UniformExchange::Stage Max Spin Ang} {Oxs_UniformExchange::Run Max Spin Ang} Oxs_MinDriver::Iteration {Oxs_MinDriver::Stage iteration} Oxs_MinDriver::Stage Oxs_MinDriver::mx    Oxs_MinDriver::my    Oxs_MinDriver::mz   
# Units:                 A/m                               J                                J                               {}                                   {}                                 {}                                  {}                                     {}                                  J                             J                              deg                                    deg                                      deg                              {}                           {}                         {}                 {}                   {}                   {}           
                 2755436.6841928791                1.0519602821229705e-16             1.0519602821229705e-16              0                                    0                                  1                                   1                                      1                                   8.9185325956986335e-17          1.6010702255310718e-17             23.607201693706042                     23.607201693706042                       23.607201693706042               0                            0                          0                    0.79384167144845108  0.53541883955940528  0.26899688987892817
                 2744532.110851876                 1.0507054195936469e-16            -1.2548625293235675e-19              1                                    0                                  1                                   1                                      2                                   8.9164743639038689e-17          1.590579832032601e-17             23.548190641701279                     23.607201693706042                       23.607201693706042               1                            1                          0                    0.79386470275842169  0.53543205560019569  0.26900342649610426
                 2674710.4463596777                1.0420455576029926e-16            -8.6598619906542642e-19              2                                    0                                  1                                   1                                      3                                   8.9020690588686688e-17          1.5183865171612581e-17             23.135185530049505                     23.607201693706042                       23.607201693706042               2                            2                          0                    0.79402352684708444  0.5355229261900657   0.26904836119786907
                 2201154.8123353985                9.8063779004718645e-17            -6.1407767555806199e-18              3                                    0                                  1                                   1                                      4                                   8.7870795380917959e-17          1.0192983623800685e-17             19.838220221632998                     23.607201693706042                       23.607201693706042               3                            3                          0                    0.79514262526479107  0.53614642195433815  0.26935603300979666
                 1099678.1634931935                8.8964802691091403e-17            -9.0989763136272483e-18              4                                    0                                  1                                   1                                      5                                   8.5080081497769012e-17          3.8847211933223853e-18             14.818690788295173                     23.607201693706042                       23.607201693706042               4                            4                          0                    0.79674463720470978  0.53690214757099342  0.26972275129654855
                 1095422.6037149718                8.8923085084821317e-17            -4.1717606270085869e-20              5                                    0                                  2                                   0                                      6                                   8.5056918644086261e-17          3.8661664407350577e-18             14.794796443485259                     23.607201693706042                       23.607201693706042               5                            5                          0                    0.79675378505964345  0.53690270876599766  0.2697221645192136 
                 1065554.0860112845                8.8637266200572844e-17            -2.8581888424846999e-19              6                                    0                                  2                                   0                                      7                                   8.4894777359703418e-17          3.7424888408694304e-18             14.627765916887487                     23.607201693706042                       23.607201693706042               6                            6                          0                    0.79681580436026522  0.53690526950212925  0.26971737313393596
                 839218.62111214071                8.674287424515795e-17            -1.894391955414888e-18              7                                    0                                  2                                   0                                      8                                   8.3598602614350551e-17          3.1442716308074034e-18             13.307802506969784                     23.607201693706042                       23.607201693706042               7                            7                          0                    0.79718478875189158  0.53683973312575117  0.26963603980923362
                 672753.97561350872                8.5061767143301465e-17            -1.6811071018564963e-18              8                                    0                                  2                                   0                                      9                                   8.0434892447838497e-17          4.6268746954629572e-18             17.888920272724963                     23.607201693706042                       23.607201693706042               8                            8                          0                    0.79712998816166891  0.53603194617323391  0.26911287105611276
                 664543.23965745652                8.5038847770116656e-17            -2.2919373184799055e-20              8                                    1                                  2                                   0                                      10                                  8.0760262028501529e-17          4.278585741615129e-18             17.263105438056161                     23.607201693706042                       23.607201693706042               9                            9                          0                    0.79719922261148868  0.53615813447217808  0.26918831326155873
                 421824.03687189764                8.3846544521185838e-17            -1.1923032489308275e-18              9                                    1                                  3                                   1                                      11                                  7.867577808188832e-17          5.170766439297512e-18             20.370806720166833                     23.607201693706042                       23.607201693706042               10                           10                         0                    0.79693955716114828  0.53455749268321795  0.26807559456345154
# Table End
