# ODT 1.0
# Table Start
# Title: mmArchive Data Table, Wed Jun 16 18:59:37 EDT 2010
# Columns: {Oxs_CGEvolve:evolve:Max mxHxm} {Oxs_CGEvolve:evolve:Total energy} {Oxs_CGEvolve:evolve:Delta E} {Oxs_CGEvolve:evolve:Bracket count} {Oxs_CGEvolve:evolve:Line min count} {Oxs_CGEvolve:evolve:Cycle count} {Oxs_CGEvolve:evolve:Cycle sub count} {Oxs_CGEvolve:evolve:Energy calc count} Oxs_UniaxialAnisotropy::Energy Oxs_UniformExchange::Energy {Oxs_UniformExchange::Max Spin Ang} {Oxs_UniformExchange::Stage Max Spin Ang} {Oxs_UniformExchange::Run Max Spin Ang} Oxs_MinDriver::Iteration {Oxs_MinDriver::Stage iteration} Oxs_MinDriver::Stage Oxs_MinDriver::mx    Oxs_MinDriver::my    Oxs_MinDriver::mz   
# Units:                 A/m                               J                                J                               {}                                   {}                                 {}                                  {}                                     {}                                  J                             J                              deg                                    deg                                      deg                              {}                           {}                         {}                 {}                   {}                   {}           
                 342301.89142555854                8.7989458824964021e-20             8.7989458824964021e-20              0                                    0                                  1                                   1                                      1                                   8.7989458824964021e-20          0                               0                                      0                                        0                                0                            0                          0                    0.74801610292441689  0.56886120618289271  0.34186084576317377
                 343694.88848765969                8.7957863071698737e-20            -3.1595753265282702e-23              1                                    0                                  1                                   1                                      2                                   8.7957863071698737e-20          0                               0                                      0                                        0                                1                            1                          0                    0.74848164716218124  0.56814387005381672  0.34203474499187914
                 347867.55983094702                8.7862307069552594e-20            -9.5556002146133174e-23              2                                    0                                  1                                   1                                      3                                   8.7862307069552594e-20          0                               0                                      0                                        0                                2                            2                          0                    0.74987485139132581  0.56598927880434036  0.34255487666851231
                 364460.41606550297                8.7468624019004385e-20            -3.9368305054821266e-22              3                                    0                                  1                                   1                                      4                                   8.7468624019004385e-20          0                               0                                      0                                        0                                3                            3                          0                    0.75539574014775501  0.55733296460370252  0.34461172692274061
                 429080.97586136602                8.5715636116844864e-20            -1.7529879021595275e-21              4                                    0                                  1                                   1                                      5                                   8.5715636116844864e-20          0                               0                                      0                                        0                                4                            4                          0                    0.77661886988400175  0.52215180344899526  0.35244946459749049
                 594736.8991547341                 7.9269077118086038e-20            -6.4465589987588281e-21              5                                    0                                  1                                   1                                      6                                   7.9269077118086038e-20          0                               0                                      0                                        0                                5                            5                          0                    0.82934560260991264  0.41752205231861012  0.37129665667664807
                 595841.13947189285                7.9214241277666678e-20            -5.4835840419352807e-23              6                                    0                                  2                                   0                                      7                                   7.9214241277666678e-20          0                               0                                      0                                        0                                6                            6                          0                    0.82969068707048399  0.4167294651774775   0.37141609636821321
                 599142.94006208063                7.9049125456895661e-20            -1.6511582077102072e-22              7                                    0                                  2                                   0                                      8                                   7.9049125456895661e-20          0                               0                                      0                                        0                                7                            7                          0                    0.83072214310791181  0.41434981411253596  0.37177271617899138
                 612183.95551494171                7.8379660149343033e-20            -6.6946530755262883e-22              8                                    0                                  2                                   0                                      9                                   7.8379660149343033e-20          0                               0                                      0                                        0                                8                            8                          0                    0.83479063930313346  0.40480373953875093  0.37317358023754671
                 661547.59872570995                7.5565898916597542e-20            -2.8137612327454841e-21              9                                    0                                  2                                   0                                      10                                  7.5565898916597542e-20          0                               0                                      0                                        0                                9                            9                          0                    0.850126366730523    0.36623587862033996  0.37836020113213265
                 775437.85946403455                6.6517794011774511e-20            -9.0481049048230382e-21              10                                   0                                  2                                   0                                      11                                  6.6517794011774511e-20          0                               0                                      0                                        0                                10                           10                         0                    0.8854758558292305   0.25349670217097919  0.38945080656217634
# Table End
