# ODT 1.0
# Table Start
# Title: mmArchive Data Table, Wed Jun 16 18:59:28 EDT 2010
# Columns: {Oxs_CGEvolve:evolve:Max mxHxm} {Oxs_CGEvolve:evolve:Total energy} {Oxs_CGEvolve:evolve:Delta E} {Oxs_CGEvolve:evolve:Bracket count} {Oxs_CGEvolve:evolve:Line min count} {Oxs_CGEvolve:evolve:Cycle count} {Oxs_CGEvolve:evolve:Cycle sub count} {Oxs_CGEvolve:evolve:Energy calc count} Oxs_UniaxialAnisotropy::Energy Oxs_UniformExchange::Energy {Oxs_UniformExchange::Max Spin Ang} {Oxs_UniformExchange::Stage Max Spin Ang} {Oxs_UniformExchange::Run Max Spin Ang} Oxs_MinDriver::Iteration {Oxs_MinDriver::Stage iteration} Oxs_MinDriver::Stage Oxs_MinDriver::mx    Oxs_MinDriver::my    Oxs_MinDriver::mz   
# Units:                 A/m                               J                                J                               {}                                   {}                                 {}                                  {}                                     {}                                  J                             J                              deg                                    deg                                      deg                              {}                           {}                         {}                 {}                   {}                   {}           
                 3317493.8611809635                5.3915986192049882e-17             5.3915986192049882e-17              0                                    0                                  1                                   1                                      1                                   4.583662076376337e-17          8.0793654282865127e-18             23.832877308341594                     23.832877308341594                       23.832877308341594               0                            0                          0                    0.79409390110715505  0.53520648799166626  0.2681128426134996 
                 3308667.383413313                 5.38638968189362e-17            -5.2089373113680881e-20              1                                    0                                  1                                   1                                      2                                   4.5828121909735816e-17          8.0357749092003841e-18             23.761463765119618                     23.832877308341594                       23.832877308341594               1                            1                          0                    0.79411042603233595  0.5352199373067581   0.26812242107688938
                 3246709.5581203685                5.350343118422156e-17            -3.6046563471464405e-19              2                                    0                                  1                                   1                                      3                                   4.5768620947637027e-17          7.7348102365845312e-18             23.261573645071195                     23.832877308341594                       23.832877308341594               2                            2                          0                    0.79422445596501123  0.53531295138044244  0.26818890694428232
                 2741181.7926546652                5.0883287650392018e-17            -2.6201435338295422e-18              3                                    0                                  1                                   1                                      4                                   4.5292369443543258e-17          5.5909182068487561e-18             19.677266384637388                     23.832877308341594                       23.832877308341594               3                            3                          0                    0.79503274689737713  0.5359857382725931   0.26868520037736421
                 1445751.0523158056                4.6448478994215878e-17            -4.4348086561761384e-18              4                                    0                                  1                                   1                                      5                                   4.4124030044764138e-17          2.3244489494517396e-18             14.77943498238607                      23.832877308341594                       23.832877308341594               4                            4                          0                    0.79623189039428155  0.5371039272760566   0.26963737898813495
                 1436348.078182068                 4.6423208004044684e-17            -2.5270990171191664e-20              5                                    0                                  2                                   0                                      6                                   4.4112640336149381e-17          2.3105676678953029e-18             14.773847518583302                     23.832877308341594                       23.832877308341594               5                            5                          0                    0.79623540271196414  0.53711181676482334  0.26964774968325911
                 1370449.2297449436                4.624966306551951e-17            -1.7354493852517275e-19              6                                    0                                  2                                   0                                      7                                   4.4032892865486691e-17          2.2167702000328191e-18             14.735213248325525                     23.832877308341594                       23.832877308341594               6                            6                          0                    0.79625813994569317  0.53716578383098723  0.26971971289380792
                 947889.78107688879                4.5073201914650979e-17            -1.1764611508685317e-18              7                                    0                                  2                                   0                                      8                                   4.3394161307197134e-17          1.679040607453849e-18             14.457036592330985                     23.832877308341594                       23.832877308341594               7                            7                          0                    0.79632345429328311  0.53751819838846537  0.27025556579662829
                 683387.57901660167                4.3789108870862722e-17            -1.2840930437882574e-18              8                                    0                                  2                                   0                                      9                                   4.182513536491383e-17          1.963973505948894e-18             14.021759996042425                     23.832877308341594                       23.832877308341594               8                            8                          0                    0.79560153420433466  0.53778821038770808  0.2712741469604103 
                 672392.35402118717                4.3776877935919829e-17            -1.2230934942897203e-20              9                                    0                                  3                                   0                                      10                                  4.1819138435420121e-17          1.9577395004997075e-18             14.052711500366842                     23.832877308341594                       23.832877308341594               9                            9                          0                    0.79559208765478928  0.53779438342667574  0.27129026270102941
                 618137.80249081471                4.3694326520606918e-17            -8.2551415312907035e-20              10                                   0                                  3                                   0                                      11                                  4.1777164231308521e-17          1.9171622892984002e-18             14.270751324479393                     23.832877308341594                       23.832877308341594               10                           10                         0                    0.79552406046564983  0.53783630842837149  0.27140242256307501
# Table End
