# ODT 1.0
# Table Start
# Title: mmArchive Data Table, Wed Jun 16 18:59:58 EDT 2010
# Columns: {Oxs_CGEvolve:evolve:Max mxHxm} {Oxs_CGEvolve:evolve:Total energy} {Oxs_CGEvolve:evolve:Delta E} {Oxs_CGEvolve:evolve:Bracket count} {Oxs_CGEvolve:evolve:Line min count} {Oxs_CGEvolve:evolve:Cycle count} {Oxs_CGEvolve:evolve:Cycle sub count} {Oxs_CGEvolve:evolve:Energy calc count} Oxs_UniaxialAnisotropy::Energy Oxs_UniformExchange::Energy {Oxs_UniformExchange::Max Spin Ang} {Oxs_UniformExchange::Stage Max Spin Ang} {Oxs_UniformExchange::Run Max Spin Ang} Oxs_MinDriver::Iteration {Oxs_MinDriver::Stage iteration} Oxs_MinDriver::Stage Oxs_MinDriver::mx    Oxs_MinDriver::my    Oxs_MinDriver::mz   
# Units:                 A/m                               J                                J                               {}                                   {}                                 {}                                  {}                                     {}                                  J                             J                              deg                                    deg                                      deg                              {}                           {}                         {}                 {}                   {}                   {}           
                 510152.44985022536                9.7582160596731222e-20             9.7582160596731222e-20              0                                    0                                  1                                   1                                      1                                   9.6057357447060449e-20          1.5248031496707712e-21             5.74733545470556                       5.74733545470556                         5.74733545470556                 0                            0                          0                    0.74707730126211425  0.59230320297629513  0.29755505355776829
                 507989.05093366996                9.7513895412950778e-20            -6.8265183780452151e-23              1                                    0                                  1                                   1                                      2                                   9.6015299534558265e-20          1.4985958783925139e-21             5.6976896595496012                     5.74733545470556                         5.74733545470556                 1                            1                          0                    0.74682494560816748  0.59239976479955947  0.29806845907680851
                 492956.47468957142                9.7042738677779496e-20            -4.7115673517128346e-22              2                                    0                                  1                                   1                                      3                                   9.572024489230808e-20          1.3224937854714064e-21             5.3521995430312845                     5.74733545470556                         5.74733545470556                 2                            2                          0                    0.74504689920597578  0.59306637464662471  0.3016578499489998 
                 383055.00508660445                9.3702882341541451e-20            -3.3398563362380419e-21              3                                    0                                  1                                   1                                      4                                   9.3324245522302673e-20          3.7863681923878093e-22             2.8630845220074139                     5.74733545470556                         5.74733545470556                 3                            3                          0                    0.7301085914729083   0.59781425766887319  0.33005367951310755
                 615392.56374204345                8.8818036590128087e-20            -4.8848457514133578e-21              4                                    0                                  1                                   1                                      5                                   8.7273599185714796e-20          1.5444374044132962e-21             5.7842513775106932                     5.7842513775106932                       5.7842513775106932               4                            4                          0                    0.6882942614343982   0.60521286269010066  0.39676520080469385
                 614146.53014321171                8.8746153313687324e-20            -7.1883276440768576e-23              5                                    0                                  2                                   0                                      6                                   8.7222922902761559e-20          1.5232304109257673e-21             5.7443681955605879                     5.7842513775106932                       5.7842513775106932               5                            5                          0                    0.6880079664047366   0.60526246605200296  0.39722986543511296
                 605522.86466448731                8.8246924460669551e-20            -4.9922885301777262e-22              6                                    0                                  2                                   0                                      7                                   8.6865963928267296e-20          1.380960532402249e-21             5.4693170189870424                     5.7842513775106932                       5.7842513775106932               6                            6                          0                    0.68599480445901584  0.60560120053198918  0.40047722232301336
                 544103.98607464484                8.4512016142721226e-20            -3.7349083179483292e-21              7                                    0                                  2                                   0                                      8                                   8.3878680767753312e-20          6.3333537496790535e-22             3.7031391184335209                     5.7842513775106932                       5.7842513775106932               7                            7                          0                    0.66933243993424252  0.60778274452667136  0.42608715176359502
                 507432.91916852788                7.7458727029029297e-20            -7.0532891136919287e-21              8                                    0                                  2                                   0                                      9                                   7.5742796995574073e-20          1.7159300334552225e-21             6.0972259930357549                     6.0972259930357549                       6.0972259930357549               8                            8                          0                    0.62447993634092369  0.60937597679829336  0.48565138928006762
                 506512.58929666952                7.7369107076315936e-20            -8.9619952713358477e-23              9                                    0                                  3                                   0                                      10                                  7.5661964922069011e-20          1.7071421542469248e-21             6.0815782229963844                     6.0972259930357549                       6.0972259930357549               9                            9                          0                    0.62396926862716962  0.60941954958772449  0.48626761541896502
                 500177.8726176123                 7.6743695814307323e-20            -6.2541126200860929e-22              10                                   0                                  3                                   0                                      11                                  7.5095149293660419e-20          1.648546520646903e-21             5.976199021778057                      6.0972259930357549                       6.0972259930357549               10                           10                         0                    0.62038189894980955  0.60971207902336111  0.49057119337945865
# Table End
