# ODT 1.0
# Table Start
# Title: mmArchive Data Table, Wed Jun 16 18:59:59 EDT 2010
# Columns: {Oxs_CGEvolve:evolve:Max mxHxm} {Oxs_CGEvolve:evolve:Total energy} {Oxs_CGEvolve:evolve:Delta E} {Oxs_CGEvolve:evolve:Bracket count} {Oxs_CGEvolve:evolve:Line min count} {Oxs_CGEvolve:evolve:Cycle count} {Oxs_CGEvolve:evolve:Cycle sub count} {Oxs_CGEvolve:evolve:Energy calc count} Oxs_UniaxialAnisotropy::Energy Oxs_UniformExchange::Energy {Oxs_UniformExchange::Max Spin Ang} {Oxs_UniformExchange::Stage Max Spin Ang} {Oxs_UniformExchange::Run Max Spin Ang} Oxs_MinDriver::Iteration {Oxs_MinDriver::Stage iteration} Oxs_MinDriver::Stage Oxs_MinDriver::mx    Oxs_MinDriver::my    Oxs_MinDriver::mz   
# Units:                 A/m                               J                                J                               {}                                   {}                                 {}                                  {}                                     {}                                  J                             J                              deg                                    deg                                      deg                              {}                           {}                         {}                 {}                   {}                   {}           
                 1667937.7951063458                2.868785782989207e-19             2.868785782989207e-19              0                                    0                                  1                                   1                                      1                                   2.6545891648294356e-19          2.141966181597716e-20             18.060306321349607                     18.060306321349607                       18.060306321349607               0                            0                          0                    0.77101693517138814  0.55211471653206168  0.29731206173820074
                 1663608.2455039839                2.8662424847913948e-19            -2.5432981978121461e-22              1                                    0                                  1                                   1                                      2                                   2.6533593524847203e-19          2.1288313230667439e-20             18.001967632094811                     18.060306321349607                       18.060306321349607               1                            1                          0                    0.77097182612632109  0.55218778026894544  0.29738417782677784
                 1633215.9666801989                2.8486589929651632e-19            -1.7583491826231735e-21              2                                    0                                  1                                   1                                      3                                   2.6447450325788903e-19          2.0391396038627268e-20             17.593865963503092                     18.060306321349607                       18.060306321349607               2                            2                          0                    0.77065243510525394  0.55269713389925745  0.29788768087598161
                 1385233.7120012599                2.7220525034767121e-19            -1.2660648948845121e-20              3                                    0                                  1                                   1                                      4                                   2.5756338059844671e-19          1.4641869749224513e-20             14.353248779514162                     18.060306321349607                       18.060306321349607               3                            3                          0                    0.76787435851952068  0.55663221385692674  0.3018294613974068 
                 755246.39993477706                2.5203791114158956e-19            -2.0167339206081647e-20              4                                    0                                  1                                   1                                      5                                   2.4074594112228818e-19          1.1291970019301358e-20             11.735843763953474                     18.060306321349607                       18.060306321349607               4                            4                          0                    0.75949054528813031  0.56510225100228195  0.31081523542980732
                 752684.91641527438                2.5190242771427132e-19            -1.3548342731822347e-22              5                                    0                                  2                                   0                                      6                                   2.4061707418742237e-19          1.1285353526848956e-20             11.703230954795274                     18.060306321349607                       18.060306321349607               5                            5                          0                    0.75934021357356796  0.56522721829039624  0.31096914212249432
                 734681.98140381183                2.5096154610362863e-19            -9.4088161064271471e-22              6                                    0                                  2                                   0                                      7                                   2.3971563019772741e-19          1.1245915905901187e-20             11.474962239742519                     18.060306321349607                       18.060306321349607               6                            6                          0                    0.75828396248015817  0.56609910302499333  0.31204473551097178
                 586385.17662161344                2.4392120010530414e-19            -7.0403459983244565e-21              7                                    0                                  2                                   0                                      8                                   2.3255848705008495e-19          1.136271305521921e-20             11.623001758120216                     18.060306321349607                       18.060306321349607               7                            7                          0                    0.74959393237608585  0.57288675241441889  0.3205320471068524 
                 554026.2810333384                 2.3051025261989142e-19            -1.3410947485412722e-20              8                                    0                                  2                                   0                                      9                                   2.1566329713802234e-19          1.484695548186909e-20             12.686869849014707                     18.060306321349607                       18.060306321349607               8                            8                          0                    0.72654890097053215  0.58808535050806621  0.34041387013679947
                 551655.85787031974                2.3040089693791541e-19            -1.0935568197601084e-22              9                                    0                                  3                                   0                                      10                                  2.1558061283941376e-19          1.4820284098501651e-20             12.676695684950854                     18.060306321349607                       18.060306321349607               9                            9                          0                    0.72632601825553156  0.58822975609896433  0.34061421087668703
                 535055.27541504102                2.2964199332328012e-19            -7.5890361463528648e-22              10                                   0                                  3                                   0                                      11                                  2.1500158900450975e-19          1.4640404318770387e-20             12.606880185968842                     18.060306321349607                       18.060306321349607               10                           10                         0                    0.72476171012657886  0.58923723623648294  0.34201456055370261
# Table End
