# ODT 1.0
# Table Start
# Title: mmArchive Data Table, Wed Jun 16 18:59:41 EDT 2010
# Columns: {Oxs_CGEvolve:evolve:Max mxHxm} {Oxs_CGEvolve:evolve:Total energy} {Oxs_CGEvolve:evolve:Delta E} {Oxs_CGEvolve:evolve:Bracket count} {Oxs_CGEvolve:evolve:Line min count} {Oxs_CGEvolve:evolve:Cycle count} {Oxs_CGEvolve:evolve:Cycle sub count} {Oxs_CGEvolve:evolve:Energy calc count} Oxs_UniaxialAnisotropy::Energy Oxs_UniformExchange::Energy {Oxs_UniformExchange::Max Spin Ang} {Oxs_UniformExchange::Stage Max Spin Ang} {Oxs_UniformExchange::Run Max Spin Ang} Oxs_MinDriver::Iteration {Oxs_MinDriver::Stage iteration} Oxs_MinDriver::Stage Oxs_MinDriver::mx    Oxs_MinDriver::my    Oxs_MinDriver::mz   
# Units:                 A/m                               J                                J                               {}                                   {}                                 {}                                  {}                                     {}                                  J                             J                              deg                                    deg                                      deg                              {}                           {}                         {}                 {}                   {}                   {}           
                 1422839.6325461369                9.3352394563263902e-18             9.3352394563263902e-18              0                                    0                                  1                                   1                                      1                                   8.7494902872495621e-18          5.8574916907682827e-19             21.750799576498515                     21.750799576498515                       21.750799576498515               0                            0                          0                    0.79551369831779695  0.53276391480453911  0.2697070068530974 
                 1418849.3721344122                9.3293080299061476e-18            -5.9314264202418873e-21              1                                    0                                  1                                   1                                      2                                   8.746044951903273e-18          5.8326307800287471e-19             21.72325715412256                      21.750799576498515                       21.750799576498515               1                            1                          0                    0.79553077755378809  0.53276437161185686  0.26971366488232712
                 1390825.9761434516                9.2881531920111119e-18            -4.1154837895036162e-20              2                                    0                                  1                                   1                                      3                                   8.7219288572953776e-18          5.662243347157347e-19             21.530466997767231                     21.750799576498515                       21.750799576498515               2                            2                          0                    0.79564817040186375  0.532766084141017    0.26975952397347996
                 1161316.6554624774                8.9821729547497544e-18            -3.0598023726135697e-19              3                                    0                                  1                                   1                                      4                                   8.5292614322777158e-18          4.529115224720385e-19             19.988935620855305                     21.750799576498515                       21.750799576498515               3                            3                          0                    0.79645040605594342  0.53268681043113097  0.2700794521872919 
                 825265.81590053567                8.4090414053163684e-18            -5.7313154943338698e-19              4                                    0                                  1                                   1                                      5                                   8.0605287776940658e-18          3.4851262762230236e-19             18.700791112961099                     21.750799576498515                       21.750799576498515               4                            4                          0                    0.79737863992581437  0.53180394392300223  0.27051697041170741
                 823956.53721101431                8.4054584995067662e-18            -3.5829058096021115e-21              5                                    0                                  2                                   0                                      6                                   8.0567620759357648e-18          3.4869642357100098e-19             18.724113108896592                     21.750799576498515                       21.750799576498515               5                            5                          0                    0.79738076647906364  0.53178815904931609  0.27052107609315412
                 814716.57398104912                8.3806263101495515e-18            -2.4832189357214404e-20              6                                    0                                  2                                   0                                      7                                   8.0303932449157567e-18          3.5023306523379478e-19             18.887927308785596                     21.750799576498515                       21.750799576498515               6                            6                          0                    0.79739336512017245  0.53167616520101546  0.27054903768515576
                 736191.48423929838                8.1978026056788891e-18            -1.828237044706624e-19              7                                    0                                  2                                   0                                      8                                   7.8195475438999058e-18          3.7825506177898337e-19             20.230900801184315                     21.750799576498515                       21.750799576498515               7                            7                          0                    0.79734986368251226  0.53068669623176279  0.27072370540667329
                 622861.98739997845                7.871102564968961e-18            -3.2670004070992835e-19              8                                    0                                  2                                   0                                      9                                   7.3058910012310717e-18          5.6521156373788928e-19             23.731643460458553                     23.731643460458553                       23.731643460458553               8                            8                          0                    0.79615060987272668  0.52756499314486693  0.27078491170073588
                 622262.83309926931                7.8694009277823358e-18            -1.7016371866249725e-21              9                                    0                                  3                                   0                                      10                                  7.3034213240420624e-18          5.6597960374027347e-19             23.742024910139037                     23.742024910139037                       23.742024910139037               9                            9                          0                    0.79614200075886676  0.52754157313536043  0.27078867433907522
                 617995.13785795798                7.857570403627703e-18            -1.1830524154632998e-20              10                                   0                                  3                                   0                                      11                                  7.2861305075049236e-18          5.7143989612277859e-19             23.814745036062256                     23.814745036062256                       23.814745036062256               10                           10                         0                    0.79608029649625789  0.527376716172414    0.27081452698056846
# Table End
