# ODT 1.0
# Table Start
# Title: mmArchive Data Table, Wed Jun 16 18:59:57 EDT 2010
# Columns: {Oxs_CGEvolve:evolve:Max mxHxm} {Oxs_CGEvolve:evolve:Total energy} {Oxs_CGEvolve:evolve:Delta E} {Oxs_CGEvolve:evolve:Bracket count} {Oxs_CGEvolve:evolve:Line min count} {Oxs_CGEvolve:evolve:Cycle count} {Oxs_CGEvolve:evolve:Cycle sub count} {Oxs_CGEvolve:evolve:Energy calc count} Oxs_UniaxialAnisotropy::Energy Oxs_UniformExchange::Energy {Oxs_UniformExchange::Max Spin Ang} {Oxs_UniformExchange::Stage Max Spin Ang} {Oxs_UniformExchange::Run Max Spin Ang} Oxs_MinDriver::Iteration {Oxs_MinDriver::Stage iteration} Oxs_MinDriver::Stage Oxs_MinDriver::mx    Oxs_MinDriver::my    Oxs_MinDriver::mz   
# Units:                 A/m                               J                                J                               {}                                   {}                                 {}                                  {}                                     {}                                  J                             J                              deg                                    deg                                      deg                              {}                           {}                         {}                 {}                   {}                   {}           
                 3388268.4681071118                3.3102301073815485e-16             3.3102301073815485e-16              0                                    0                                  1                                   1                                      1                                   2.8087712632104483e-16          5.0145884417110043e-17             24.949551921938447                     24.949551921938447                       24.949551921938447               0                            0                          0                    0.79542215121752646  0.53393596753850359  0.26778137951727182
                 3377242.8910836247                3.306977279161857e-16            -3.2528282196913042e-19              1                                    0                                  1                                   1                                      2                                   2.8082637377762431e-16          4.9871354138561426e-17             24.913150291329202                     24.949551921938447                       24.949551921938447               1                            1                          0                    0.79543991330295905  0.53394870009730655  0.26778779657794044
                 3299885.3156864964                3.2844727176013395e-16            -2.250456156051796e-18              2                                    0                                  1                                   1                                      3                                   2.8047108894843111e-16          4.797618281170284e-17             24.658520683056601                     24.949551921938447                       24.949551921938447               2                            2                          0                    0.79556260864783879  0.5340367068054509   0.26783215462442411
                 2741621.1360902484                3.1212331391113527e-16            -1.6323957848998664e-17              3                                    0                                  1                                   1                                      4                                   2.776295477790181e-16          3.449376613211715e-17             22.634445012166577                     24.949551921938447                       24.949551921938447               3                            3                          0                    0.79644055656068313  0.5346700698218142   0.26815161912756624
                 1416024.8315754086                2.8476749487285613e-16            -2.7355819038279148e-17              4                                    0                                  1                                   1                                      5                                   2.7067261835564275e-16          1.4094876517213374e-17             17.789241203444515                     24.949551921938447                       24.949551921938447               4                            4                          0                    0.79781367879960297  0.53569590323778149  0.26867084690704407
                 1410164.6377190752                2.8461077003642754e-16            -1.5672483642860436e-19              5                                    0                                  2                                   0                                      6                                   2.7060480331116503e-16          1.4005966725262466e-17             17.739602514575139                     24.949551921938447                       24.949551921938447               5                            5                          0                    0.79782098109212718  0.53570199064064217  0.26867412232716309
                 1371595.6254168714                2.8353595775702588e-16            -1.0748122794016481e-18              6                                    0                                  2                                   0                                      7                                   2.7013002894253808e-16          1.340592881448777e-17             17.392730787461559                     24.949551921938447                       24.949551921938447               6                            6                          0                    0.79787018876740001  0.5357433087735558   0.26869640174676834
                 1080418.8095449733                2.7634436999248425e-16            -7.1915877645416329e-18              7                                    0                                  2                                   0                                      8                                   2.6633038345037471e-16          1.0013986542109523e-17             14.664372287865628                     24.949551921938447                       24.949551921938447               7                            7                          0                    0.79814341819892887  0.53599246604857143  0.26883382908230635
                 772935.51459560776                2.6933797233532802e-16            -7.0063976571561997e-18              8                                    0                                  2                                   0                                      9                                   2.5702095137994857e-16          1.2317020955379473e-17             14.758480795078439                     24.949551921938447                       24.949551921938447               8                            8                          0                    0.79790249455557871  0.53599463625113575  0.26886552783234885
                 639274.1856367744                 2.6520704896412916e-16            -4.130923371198873e-18              9                                    0                                  3                                   1                                      10                                  2.4928260328589346e-16          1.5924445678235695e-17             19.055546636269987                     24.949551921938447                       24.949551921938447               9                            9                          0                    0.79669967512431106  0.5355070513586353   0.26874930885445059
                 531850.02580033208                2.6503436460201725e-16            -1.726843621119117e-19              9                                    1                                  3                                   1                                      11                                  2.5056438376025048e-16          1.4469980841766772e-17             17.854562909911927                     24.949551921938447                       24.949551921938447               10                           10                         0                    0.79700900570318556  0.53566198401777665  0.26880563335566215
# Table End
