# ODT 1.0
# Table Start
# Title: mmArchive Data Table, Wed Jun 16 18:59:32 EDT 2010
# Columns: {Oxs_CGEvolve:evolve:Max mxHxm} {Oxs_CGEvolve:evolve:Total energy} {Oxs_CGEvolve:evolve:Delta E} {Oxs_CGEvolve:evolve:Bracket count} {Oxs_CGEvolve:evolve:Line min count} {Oxs_CGEvolve:evolve:Cycle count} {Oxs_CGEvolve:evolve:Cycle sub count} {Oxs_CGEvolve:evolve:Energy calc count} Oxs_UniaxialAnisotropy::Energy Oxs_UniformExchange::Energy {Oxs_UniformExchange::Max Spin Ang} {Oxs_UniformExchange::Stage Max Spin Ang} {Oxs_UniformExchange::Run Max Spin Ang} Oxs_MinDriver::Iteration {Oxs_MinDriver::Stage iteration} Oxs_MinDriver::Stage Oxs_MinDriver::mx    Oxs_MinDriver::my    Oxs_MinDriver::mz   
# Units:                 A/m                               J                                J                               {}                                   {}                                 {}                                  {}                                     {}                                  J                             J                              deg                                    deg                                      deg                              {}                           {}                         {}                 {}                   {}                   {}           
                 3243033.9151786785                7.3820392096640616e-17             7.3820392096640616e-17              0                                    0                                  1                                   1                                      1                                   6.2615549802695923e-17          1.1204842293944682e-17             23.832877308341594                     23.832877308341594                       23.832877308341594               0                            0                          0                    0.79482689634087222  0.53387900725666315  0.26883387228664002
                 3230436.9475047574                7.3744458646143271e-17            -7.5933450497339913e-20              1                                    0                                  1                                   1                                      2                                   6.2602894706466601e-17          1.1141563939676674e-17             23.768773333941763                     23.832877308341594                       23.832877308341594               1                            1                          0                    0.79484668922607304  0.53389105439410256  0.26884047459078586
                 3142050.3539350391                7.3219231348115265e-17            -5.2522729802800394e-19              2                                    0                                  1                                   1                                      3                                   6.2514311418753487e-17          1.0704919929361782e-17             23.320051575203831                     23.832877308341594                       23.832877308341594               2                            2                          0                    0.7949834555936055   0.53397415437121054  0.26888607576773227
                 2486855.7103324928                6.9417055168255898e-17            -3.8021761798593618e-18              3                                    0                                  1                                   1                                      4                                   6.1806308875288971e-17          7.6107462929669286e-18             19.732242756465709                     23.832877308341594                       23.832877308341594               3                            3                          0                    0.79596474857664179  0.53456147850207636  0.26921211432779485
                 1273068.8258887872                6.311298794995377e-17            -6.3040672183021325e-18              4                                    0                                  1                                   1                                      5                                   6.0077966139207521e-17          3.0350218107462461e-18             15.60692245651798                      23.832877308341594                       23.832877308341594               4                            4                          0                    0.7975207338814021   0.53542449673265702  0.26972234904036668
                 1267092.0694211894                6.3075512186411139e-17            -3.7475763542638428e-20              5                                    0                                  2                                   0                                      6                                   6.006045877984617e-17          3.0150534065649615e-18             15.573752438674784                     23.832877308341594                       23.832877308341594               5                            5                          0                    0.79753078579330317  0.53542771676871126  0.26972520048488435
                 1225173.9847782531                6.2818812755827205e-17            -2.5669943058392913e-19              6                                    0                                  2                                   0                                      7                                   5.9937892278427575e-17          2.8809204773996345e-18             15.34190940920489                      23.832877308341594                       23.832877308341594               6                            6                          0                    0.79759887899147097  0.53544871415465045  0.26974438782091187
                 885340.19344237901                6.112122992994699e-17            -1.6975828258802139e-18              7                                    0                                  2                                   0                                      8                                   5.8957308462268635e-17          2.1639214676783519e-18             13.512927687501957                     23.832877308341594                       23.832877308341594               7                            7                          0                    0.79800026292971604  0.53551975829392495  0.26984931685500047
                 796857.10471828061                5.9649595996181678e-17            -1.4716339337653129e-18              8                                    0                                  2                                   0                                      9                                   5.6560635460553301e-17          3.0889605356283704e-18             14.271835703855455                     23.832877308341594                       23.832877308341594               8                            8                          0                    0.7979000670039692   0.53496973787384516  0.26974422602556897
                 710745.74632334895                5.9622901498119253e-17            -2.6694498062430177e-20              8                                    1                                  2                                   0                                      10                                  5.6840145158123607e-17          2.7827563399956453e-18             14.02868215187106                      23.832877308341594                       23.832877308341594               9                            9                          0                    0.79799210961638156  0.5350871948996474   0.269783046467096  
                 544008.9642840171                 5.8519777287886288e-17            -1.1031242102329589e-18              9                                    1                                  3                                   1                                      11                                  5.493147374855758e-17          3.5883035393287107e-18             17.354986205841161                     23.832877308341594                       23.832877308341594               10                           10                         0                    0.79734768617882334  0.53359601395760448  0.26944454172879617
# Table End
