# ODT 1.0
# Table Start
# Title: mmArchive Data Table, Wed Jun 16 18:59:25 EDT 2010
# Columns: {Oxs_CGEvolve:evolve:Max mxHxm} {Oxs_CGEvolve:evolve:Total energy} {Oxs_CGEvolve:evolve:Delta E} {Oxs_CGEvolve:evolve:Bracket count} {Oxs_CGEvolve:evolve:Line min count} {Oxs_CGEvolve:evolve:Cycle count} {Oxs_CGEvolve:evolve:Cycle sub count} {Oxs_CGEvolve:evolve:Energy calc count} Oxs_UniaxialAnisotropy::Energy Oxs_UniformExchange::Energy {Oxs_UniformExchange::Max Spin Ang} {Oxs_UniformExchange::Stage Max Spin Ang} {Oxs_UniformExchange::Run Max Spin Ang} Oxs_MinDriver::Iteration {Oxs_MinDriver::Stage iteration} Oxs_MinDriver::Stage Oxs_MinDriver::mx    Oxs_MinDriver::my    Oxs_MinDriver::mz   
# Units:                 A/m                               J                                J                               {}                                   {}                                 {}                                  {}                                     {}                                  J                             J                              deg                                    deg                                      deg                              {}                           {}                         {}                 {}                   {}                   {}           
                 3123476.0198541973                7.0457585441384039e-17             7.0457585441384039e-17              0                                    0                                  1                                   1                                      1                                   6.0019288117928976e-17          1.043829732345506e-17             23.616550525979314                     23.616550525979314                       23.616550525979314               0                            0                          0                    0.79424093962018649  0.53512480047237709  0.26855483543759789
                 3112361.4942211523                7.0385571068897657e-17            -7.201437248638117e-20              1                                    0                                  1                                   1                                      2                                   6.0006989327403671e-17          1.0378581741493981e-17             23.541713410957083                     23.616550525979314                       23.616550525979314               1                            1                          0                    0.79426002549149788  0.53513717224573909  0.26856132403083527
                 3034381.9020048575                6.988758642927032e-17            -4.9798463962734054e-19              2                                    0                                  1                                   1                                      3                                   5.9920893672571251e-17          9.9666927566990665e-18             23.017859670950784                     23.616550525979314                       23.616550525979314               2                            2                          0                    0.79439182526835317  0.53522253984475121  0.26860612801280326
                 2400685.0041582137                6.6291269641209402e-17            -3.5963167880609192e-18              3                                    0                                  1                                   1                                      4                                   5.9232362000317836e-17          7.0589076408915596e-18             19.670303590322415                     23.616550525979314                       23.616550525979314               3                            3                          0                    0.79533236465479096  0.53582757976299766  0.26892567366806891
                 1265991.0336404084                6.0401276491494393e-17            -5.8899931497150082e-18              4                                    0                                  1                                   1                                      5                                   5.7548309017574719e-17          2.8529674739196647e-18             16.29564475815328                      23.616550525979314                       23.616550525979314               4                            4                          0                    0.79678231748597494  0.53672834467909647  0.26941818734397566
                 1261667.1073951728                6.0367555459466701e-17            -3.372103202769015e-20              5                                    0                                  2                                   0                                      6                                   5.7531451220605236e-17          2.8361042388614671e-18             16.27012390818745                      23.616550525979314                       23.616550525979314               5                            5                          0                    0.79679046416539323  0.53673275135262111  0.26942052578144132
                 1231308.0284861829                6.0136253102297371e-17            -2.3130235716932435e-19              6                                    0                                  2                                   0                                      7                                   5.7413444676685137e-17          2.722808425612232e-18             16.092708222887421                     23.616550525979314                       23.616550525979314               6                            6                          0                    0.79684539235052521  0.53676216729155768  0.26943617727549468
                 983122.76874602633                5.8585875459273522e-17            -1.5503776430238525e-18              7                                    0                                  2                                   0                                      8                                   5.64700836534509e-17          2.1157918058226166e-18             14.759389840614993                     23.616550525979314                       23.616550525979314               7                            7                          0                    0.79715240070697413  0.53690749730552845  0.26951620981273888
                 853864.86045679625                5.7052666800603389e-17            -1.5332086586701283e-18              8                                    0                                  2                                   0                                      9                                   5.4168853319914838e-17          2.8838134806885537e-18             15.713784362701915                     23.616550525979314                       23.616550525979314               8                            8                          0                    0.79690492678554692  0.53658982806867717  0.26937316770429021
                 572731.43090103916                5.6065992839251677e-17            -9.8667396135172083e-19              9                                    0                                  3                                   1                                      10                                  5.2040908931287564e-17          4.0250839079641078e-18             20.93669731820443                      23.616550525979314                       23.616550525979314               9                            9                          0                    0.7955084207113956   0.53534658104269428  0.26866296278327656
                 406844.08678885089                5.5997413318550728e-17            -6.8579520700948666e-20              9                                    1                                  3                                   1                                      11                                  5.2468494358750802e-17          3.5289189597999215e-18             19.18614376122034                      23.616550525979314                       23.616550525979314               10                           10                         0                    0.79596508217059614  0.535715547776906    0.26886544807915114
# Table End
