# ODT 1.0
# Table Start
# Title: mmArchive Data Table, Wed Jun 16 18:59:42 EDT 2010
# Columns: {Oxs_CGEvolve:evolve:Max mxHxm} {Oxs_CGEvolve:evolve:Total energy} {Oxs_CGEvolve:evolve:Delta E} {Oxs_CGEvolve:evolve:Bracket count} {Oxs_CGEvolve:evolve:Line min count} {Oxs_CGEvolve:evolve:Cycle count} {Oxs_CGEvolve:evolve:Cycle sub count} {Oxs_CGEvolve:evolve:Energy calc count} Oxs_UniaxialAnisotropy::Energy Oxs_UniformExchange::Energy {Oxs_UniformExchange::Max Spin Ang} {Oxs_UniformExchange::Stage Max Spin Ang} {Oxs_UniformExchange::Run Max Spin Ang} Oxs_MinDriver::Iteration {Oxs_MinDriver::Stage iteration} Oxs_MinDriver::Stage Oxs_MinDriver::mx    Oxs_MinDriver::my    Oxs_MinDriver::mz   
# Units:                 A/m                               J                                J                               {}                                   {}                                 {}                                  {}                                     {}                                  J                             J                              deg                                    deg                                      deg                              {}                           {}                         {}                 {}                   {}                   {}           
                 2834553.5156926536                2.1442455936126838e-17             2.1442455936126838e-17              0                                    0                                  1                                   1                                      1                                   1.8914135844605194e-17          2.5283200915216428e-18             23.334397171929474                     23.334397171929474                       23.334397171929474               0                            0                          0                    0.7966850345372759   0.53019975358721472  0.27038331117800085
                 2824050.7832732322                2.1425279981382852e-17            -1.7175954743986592e-20              1                                    0                                  1                                   1                                      2                                   1.8910180939299894e-17          2.5150990420829566e-18             23.290540810142005                     23.334397171929474                       23.334397171929474               1                            1                          0                    0.79670286622382103  0.5302111763231514   0.27038497174710169
                 2750417.8240397223                2.1306367659038493e-17            -1.1891232234435765e-19              2                                    0                                  1                                   1                                      3                                   1.8882493090376752e-17          2.4238745686617398e-18             22.983632100210084                     23.334397171929474                       23.334397171929474               2                            2                          0                    0.79682615838940785  0.5302900753266615   0.27039606647171494
                 2155338.824147434                 2.0438705838157194e-17            -8.6766182088129744e-19              3                                    0                                  1                                   1                                      4                                   1.8660893447172991e-17          1.7778123909842046e-18             20.53500295934019                      23.334397171929474                       23.334397171929474               3                            3                          0                    0.79771565420942314  0.53085465269555021  0.27045140086541558
                 1125319.9321245304                1.8942554363672563e-17            -1.496151474484632e-18              4                                    0                                  1                                   1                                      5                                   1.811679403063989e-17          8.2576033303267318e-19             17.49933505158744                      23.334397171929474                       23.334397171929474               4                            4                          0                    0.79916578834951979  0.53174749362320572  0.27033347478724651
                 1120102.455639791                 1.8931723838550935e-17            -1.0830525121627115e-20              5                                    0                                  2                                   0                                      6                                   1.8110289130970209e-17          8.2143470758072872e-19             17.472211955476347                     23.334397171929474                       23.334397171929474               5                            5                          0                    0.79917763219763305  0.53175246451609326  0.27032567026391013
                 1083511.9230425891                1.8857199987184839e-17            -7.4523851366098673e-20              6                                    0                                  2                                   0                                      7                                   1.8064744670115241e-17          7.9245531706959704e-19             17.283355693902781                     23.334397171929474                       23.334397171929474               6                            6                          0                    0.799258070621928    0.53178560360742821  0.2702701913811954 
                 828900.36751522962                1.8342732529210756e-17            -5.1446745797408221e-19              7                                    0                                  2                                   0                                      8                                   1.7700136174467212e-17          6.4259635474354367e-19             15.843317742428844                     23.334397171929474                       23.334397171929474               7                            7                          0                    0.7997457425282245   0.53194655689156489  0.26977319840319425
                 693069.21567860327                1.7700707882943188e-17            -6.4202464626756795e-19              8                                    0                                  2                                   0                                      9                                   1.6808483905087861e-17          8.9222397785532758e-19             18.16651011032026                      23.334397171929474                       23.334397171929474               8                            8                          0                    0.79976577722771214  0.53156390405526943  0.26815230595420991
                 688359.68111402099                1.7695731255326917e-17            -4.9766276162714734e-21              9                                    0                                  3                                   0                                      10                                  1.6805264325045033e-17          8.9046693028188252e-19             18.162973999624366                     23.334397171929474                       23.334397171929474               9                            9                          0                    0.7997714807363876   0.53155961020258191  0.26813335951307216
                 655414.28753771156                1.7661917708943579e-17            -3.3813546383337624e-20              10                                   0                                  3                                   0                                      11                                  1.6782724091012852e-17          8.7919361793072636e-19             18.138357234028298                     23.334397171929474                       23.334397171929474               10                           10                         0                    0.79980954515038072  0.53152833033517199  0.26800011811429569
# Table End
