# ODT 1.0
# Table Start
# Title: mmArchive Data Table, Wed Jun 16 18:59:39 EDT 2010
# Columns: {Oxs_CGEvolve:evolve:Max mxHxm} {Oxs_CGEvolve:evolve:Total energy} {Oxs_CGEvolve:evolve:Delta E} {Oxs_CGEvolve:evolve:Bracket count} {Oxs_CGEvolve:evolve:Line min count} {Oxs_CGEvolve:evolve:Cycle count} {Oxs_CGEvolve:evolve:Cycle sub count} {Oxs_CGEvolve:evolve:Energy calc count} Oxs_UniaxialAnisotropy::Energy Oxs_UniformExchange::Energy {Oxs_UniformExchange::Max Spin Ang} {Oxs_UniformExchange::Stage Max Spin Ang} {Oxs_UniformExchange::Run Max Spin Ang} Oxs_MinDriver::Iteration {Oxs_MinDriver::Stage iteration} Oxs_MinDriver::Stage Oxs_MinDriver::mx    Oxs_MinDriver::my    Oxs_MinDriver::mz   
# Units:                 A/m                               J                                J                               {}                                   {}                                 {}                                  {}                                     {}                                  J                             J                              deg                                    deg                                      deg                              {}                           {}                         {}                 {}                   {}                   {}           
                 1731161.7319083093                5.157479719357725e-19             5.157479719357725e-19              0                                    0                                  1                                   1                                      1                                   4.670715907510106e-19          4.8676381184761929e-20             18.860788198567775                     18.860788198567775                       18.860788198567775               0                            0                          0                    0.78895682835161907  0.54179495452182957  0.26681001355306466
                 1722791.1143018142                5.1523167979143044e-19            -5.1629214434206684e-22              1                                    0                                  1                                   1                                      2                                   4.6686292949769703e-19          4.8368750293733481e-20             18.814431994431796                     18.860788198567775                       18.860788198567775               1                            1                          0                    0.78896931922464986  0.54182978004059335  0.2667880926742987 
                 1664138.5696254659                5.1167755390175097e-19            -3.5541258896795114e-21              2                                    0                                  1                                   1                                      3                                   4.6540355013618037e-19          4.6274003765570556e-20             18.490533670649125                     18.860788198567775                       18.860788198567775               2                            2                          0                    0.78905385803699457  0.54207160505819862  0.26663369450062296
                 1193274.8692686183                4.8704866413063693e-19            -2.4628889771114017e-20              3                                    0                                  1                                   1                                      4                                   4.5382368539335498e-19          3.3224978737281941e-20             15.944580605777446                     18.860788198567775                       18.860788198567775               3                            3                          0                    0.78954868822308322  0.54388030863849279  0.26533987224743227
                 493902.23821407411                4.5551615698588114e-19            -3.1532507144755839e-20              4                                    0                                  1                                   1                                      5                                   4.2636935484846076e-19          2.9146802137420373e-20             11.855201978970765                     18.860788198567775                       18.860788198567775               4                            4                          0                    0.78942869986099351  0.5473273761698223   0.26174103906691132
                 491684.27282855276                4.5520545988000202e-19            -3.1069710587908861e-22              5                                    0                                  2                                   0                                      6                                   4.2618273474963957e-19          2.9022725130362445e-20             11.852493755059129                     18.860788198567775                       18.860788198567775               5                            5                          0                    0.7894445934618729   0.54737022448083172  0.26164746198632338
                 476168.72822670214                4.5308349336348652e-19            -2.1219665165154717e-21              6                                    0                                  2                                   0                                      7                                   4.248800449583354e-19          2.8203448405151125e-20             11.841080668872596                     18.860788198567775                       18.860788198567775               6                            6                          0                    0.78954975732626875  0.54766604463848445  0.26099034718531344
                 354618.58775533957                4.3946688411263782e-19            -1.3616609250848752e-20              7                                    0                                  2                                   0                                      8                                   4.1471148308141853e-19          2.4755401031219257e-20             12.21917434367794                      18.860788198567775                       18.860788198567775               7                            7                          0                    0.79000756743312173  0.54977140182278161  0.25560671198706097
                 1001547.9174630796                4.3160164088523827e-19            -7.8652432273995401e-21              8                                    0                                  2                                   0                                      9                                   3.9204302336210778e-19          3.9558617523130476e-20             15.978806812919155                     18.860788198567775                       18.860788198567775               8                            8                          0                    0.78827360142412939  0.55296603825940527  0.24148059111269565
                 768460.0462390004                 4.3013223124586117e-19            -1.4694096393770687e-21              8                                    1                                  2                                   0                                      10                                  3.9810104917481286e-19          3.2031182071048319e-20             14.607589137679177                     18.860788198567775                       18.860788198567775               9                            9                          0                    0.78917250363479963  0.55234455432066221  0.2456120292130595 
                 784699.42268911493                4.2206681841680719e-19            -8.0654128290540205e-21              9                                    1                                  3                                   1                                      11                                  3.5990577580899178e-19          6.2161042607815382e-20             24.367392351212974                     24.367392351212974                       24.367392351212974               10                           10                         0                    0.78424181146587046  0.55540964825935923  0.21841927509963929
# Table End
