# ODT 1.0
# Table Start
# Title: mmArchive Data Table, Wed Jun 16 19:00:00 EDT 2010
# Columns: {Oxs_CGEvolve:evolve:Max mxHxm} {Oxs_CGEvolve:evolve:Total energy} {Oxs_CGEvolve:evolve:Delta E} {Oxs_CGEvolve:evolve:Bracket count} {Oxs_CGEvolve:evolve:Line min count} {Oxs_CGEvolve:evolve:Cycle count} {Oxs_CGEvolve:evolve:Cycle sub count} {Oxs_CGEvolve:evolve:Energy calc count} Oxs_UniaxialAnisotropy::Energy Oxs_UniformExchange::Energy {Oxs_UniformExchange::Max Spin Ang} {Oxs_UniformExchange::Stage Max Spin Ang} {Oxs_UniformExchange::Run Max Spin Ang} Oxs_MinDriver::Iteration {Oxs_MinDriver::Stage iteration} Oxs_MinDriver::Stage Oxs_MinDriver::mx    Oxs_MinDriver::my    Oxs_MinDriver::mz   
# Units:                 A/m                               J                                J                               {}                                   {}                                 {}                                  {}                                     {}                                  J                             J                              deg                                    deg                                      deg                              {}                           {}                         {}                 {}                   {}                   {}           
                 1457229.236714287                 4.2962720681492312e-19             4.2962720681492312e-19              0                                    0                                  1                                   1                                      1                                   3.8095082563016117e-19          4.8676381184761929e-20             18.860788198567775                     18.860788198567775                       18.860788198567775               0                            0                          0                    0.78895682835161907  0.54179495452182957  0.26681001355306466
                 1448563.2312713838                4.2911385014529769e-19            -5.1335666962544926e-22              1                                    0                                  1                                   1                                      2                                   3.808019507368347e-19          4.8311899408462994e-20             18.804962464860623                     18.860788198567775                       18.860788198567775               1                            1                          0                    0.78897734356112981  0.54181785969613727  0.26680542934120133
                 1387875.3020097117                4.2559003251562238e-19            -3.5238176296752722e-21              2                                    0                                  1                                   1                                      3                                   3.7976076641177508e-19          4.5829266103847319e-20             18.414488791718984                     18.860788198567775                       18.860788198567775               2                            2                          0                    0.78911753456268097  0.54197587772325118  0.26677221445376531
                 903739.02575598005                4.0181718182483993e-19            -2.3772850690782461e-20              3                                    0                                  1                                   1                                      4                                   3.7150183115761764e-19          3.0315350667222329e-20             15.315742292498085                     18.860788198567775                       18.860788198567775               3                            3                          0                    0.79002449749087955  0.54309175155419398  0.26643654872583006
                 472844.30019221763                3.7694421121128897e-19            -2.4872970613550999e-20              4                                    0                                  1                                   1                                      5                                   3.5193388363224316e-19          2.5010327579045803e-20             11.681182878601977                     18.860788198567775                       18.860788198567775               4                            4                          0                    0.79066145401176535  0.54467674141181088  0.26510566775304034
                 469202.08117937983                3.7662279450264633e-19            -3.2141670864259271e-22              5                                    0                                  2                                   0                                      6                                   3.5182485036954119e-19          2.4797944133105144e-20             11.683875573606768                     18.860788198567775                       18.860788198567775               5                            5                          0                    0.79069590044988669  0.54467082437663694  0.26507093913321988
                 443698.57539317466                3.7446555676588426e-19            -2.1572377367621146e-21              6                                    0                                  2                                   0                                      7                                   3.5106445150992208e-19          2.3401105255962134e-20             11.70923064066888                      18.860788198567775                       18.860788198567775               6                            6                          0                    0.79093047901201385  0.54462485175687925  0.26482561142096056
                 306018.31586131325                3.6306747573437176e-19            -1.1398081031512483e-20              7                                    0                                  2                                   0                                      8                                   3.4517342515086788e-19          1.7894050583503896e-20             12.306469803914268                     18.860788198567775                       18.860788198567775               7                            7                          0                    0.79239233859947866  0.54397241391006523  0.26272567306214556
                 547609.90168203088                3.6123609781590842e-19            -1.8313779184633377e-21              8                                    1                                  2                                   0                                      10                                  3.4186307462969126e-19          1.9373023186217169e-20             12.958366275470841                     18.860788198567775                       18.860788198567775               8                            8                          0                    0.79290852529850098  0.54335124483186847  0.26137159616179784
                 249601.90487330398                3.4879622256264785e-19            -1.2439875253260559e-20              9                                    1                                  3                                   1                                      11                                  3.2277413035468613e-19          2.602209220796171e-20             17.546486485640923                     18.860788198567775                       18.860788198567775               9                            9                          0                    0.79405098553721132  0.54020737195707003  0.25483706424468666
                 254492.39898630037                3.4787124124002544e-19            -9.2498132262243768e-22              10                                   2                                  3                                   1                                      13                                  3.163890213738861e-19          3.1482219866139315e-20             19.211771143923436                     19.211771143923436                       19.211771143923436               10                           10                         0                    0.79394900330388996  0.5387535838893609   0.2523497031289732 
# Table End
