# ODT 1.0
# Table Start
# Title: mmArchive Data Table, Wed Jun 16 18:59:20 EDT 2010
# Columns: {Oxs_CGEvolve:evolve:Max mxHxm} {Oxs_CGEvolve:evolve:Total energy} {Oxs_CGEvolve:evolve:Delta E} {Oxs_CGEvolve:evolve:Bracket count} {Oxs_CGEvolve:evolve:Line min count} {Oxs_CGEvolve:evolve:Cycle count} {Oxs_CGEvolve:evolve:Cycle sub count} {Oxs_CGEvolve:evolve:Energy calc count} Oxs_UniaxialAnisotropy::Energy Oxs_UniformExchange::Energy {Oxs_UniformExchange::Max Spin Ang} {Oxs_UniformExchange::Stage Max Spin Ang} {Oxs_UniformExchange::Run Max Spin Ang} Oxs_MinDriver::Iteration {Oxs_MinDriver::Stage iteration} Oxs_MinDriver::Stage Oxs_MinDriver::mx    Oxs_MinDriver::my    Oxs_MinDriver::mz   
# Units:                 A/m                               J                                J                               {}                                   {}                                 {}                                  {}                                     {}                                  J                             J                              deg                                    deg                                      deg                              {}                           {}                         {}                 {}                   {}                   {}           
                 3145748.1725546457                3.9837973865243075e-16             3.9837973865243075e-16              0                                    0                                  1                                   1                                      1                                   3.3775862838303748e-16          6.0621110269393272e-17             24.949551921938447                     24.949551921938447                       24.949551921938447               0                            0                          0                    0.7951710570576197   0.53413588302382087  0.26802148874308868
                 3135256.9784540031                3.9795441680003394e-16            -4.2532185239677712e-19              1                                    0                                  1                                   1                                      2                                   3.3769212158244806e-16          6.0262295217585918e-17             24.902103469395591                     24.949551921938447                       24.949551921938447               1                            1                          0                    0.79519089276594079  0.53414880887868565  0.26802833969114298
                 3061605.5930942907                3.9501477402938822e-16            -2.9396427706457622e-18              2                                    0                                  1                                   1                                      3                                   3.3722657935950868e-16          5.7788194669879488e-17             24.569965232105787                     24.949551921938447                       24.949551921938447               2                            2                          0                    0.79532781276467845  0.53423796889935893  0.26807563544347318
                 2522642.5166658591                3.7388040512154305e-16            -2.1134368907845129e-17              3                                    0                                  1                                   1                                      4                                   3.3350538215636205e-16          4.0375022965181001e-17             21.913686887789581                     24.949551921938447                       24.949551921938447               3                            3                          0                    0.79630115096133269  0.53486797457516089  0.2684123097095778 
                 1405183.8559114719                3.4006367259085807e-16            -3.3816732530685016e-17              4                                    0                                  1                                   1                                      5                                   3.2442112159371596e-16          1.5642550997142072e-17             17.630479361408305                     24.949551921938447                       24.949551921938447               4                            4                          0                    0.79776890601550554  0.53579098125393765  0.26892613149209654
                 1398543.7527715159                3.3990288013173882e-16            -1.6079245911922417e-19              5                                    0                                  2                                   0                                      6                                   3.243434606193933e-16          1.5559419512345528e-17             17.609350028931125                     24.949551921938447                       24.949551921938447               5                            5                          0                    0.79777599031868551  0.53579434369774259  0.26892852649439081
                 1351992.5428572297                3.387989707810988e-16            -1.1039093506400128e-18              6                                    0                                  2                                   0                                      7                                   3.2379977964505741e-16          1.499919113604138e-17             17.461448862799326                     24.949551921938447                       24.949551921938447               6                            6                          0                    0.79782393109303307  0.53581676258938704  0.26894473053432172
                 1028027.9844776604                3.3133492107945163e-16            -7.4640497016471742e-18              7                                    0                                  2                                   0                                      8                                   3.194497744457682e-16          1.1885146633683407e-17             16.43992353908483                      24.949551921938447                       24.949551921938447               7                            7                          0                    0.79810340058420692  0.53592576704624562  0.26903903615061581
                 643484.90997296222                3.2335669338262742e-16            -7.9782276968241941e-18              8                                    0                                  2                                   0                                      9                                   3.0878929363783908e-16          1.4567399744788384e-17             15.424070353828187                     24.949551921938447                       24.949551921938447               8                            8                          0                    0.79800236099923305  0.53566515407768966  0.26900486031218773
                 637527.88228140934                3.2327800035589047e-16            -7.8693026736948737e-20              9                                    0                                  3                                   0                                      10                                  3.0875673480531993e-16          1.4521265550570548e-17             15.409620179862145                     24.949551921938447                       24.949551921938447               9                            9                          0                    0.79800398154228314  0.53566291690893542  0.26900491110095004
                 620466.48598559527                3.2274984417044477e-16            -5.2815618544574161e-19              10                                   0                                  3                                   0                                      11                                  3.0852895610684758e-16          1.4220888063597153e-17             15.310650880288243                     24.949551921938447                       24.949551921938447               10                           10                         0                    0.79801355281206587  0.5356460633417216   0.26900466813058432
# Table End
