# ODT 1.0
# Table Start
# Title: mmArchive Data Table, Wed Jun 16 18:59:32 EDT 2010
# Columns: {Oxs_CGEvolve:evolve:Max mxHxm} {Oxs_CGEvolve:evolve:Total energy} {Oxs_CGEvolve:evolve:Delta E} {Oxs_CGEvolve:evolve:Bracket count} {Oxs_CGEvolve:evolve:Line min count} {Oxs_CGEvolve:evolve:Cycle count} {Oxs_CGEvolve:evolve:Cycle sub count} {Oxs_CGEvolve:evolve:Energy calc count} Oxs_UniaxialAnisotropy::Energy Oxs_UniformExchange::Energy {Oxs_UniformExchange::Max Spin Ang} {Oxs_UniformExchange::Stage Max Spin Ang} {Oxs_UniformExchange::Run Max Spin Ang} Oxs_MinDriver::Iteration {Oxs_MinDriver::Stage iteration} Oxs_MinDriver::Stage Oxs_MinDriver::mx    Oxs_MinDriver::my    Oxs_MinDriver::mz   
# Units:                 A/m                               J                                J                               {}                                   {}                                 {}                                  {}                                     {}                                  J                             J                              deg                                    deg                                      deg                              {}                           {}                         {}                 {}                   {}                   {}           
                 2931463.2066594856                1.056799303520566e-16             1.056799303520566e-16              0                                    0                                  1                                   1                                      1                                   9.0272612577390184e-17          1.5407317774666425e-17             23.832877308341594                     23.832877308341594                       23.832877308341594               0                            0                          0                    0.79470572596431532  0.53407889158553146  0.26927545676101755
                 2923714.871474898                 1.0556591755894046e-16            -1.1401279311614389e-19              1                                    0                                  1                                   1                                      2                                   9.0253439684029798e-17          1.5312477874910663e-17             23.751256235861526                     23.832877308341594                       23.832877308341594               1                            1                          0                    0.79472570597037595  0.53409209672009517  0.2692842486872804 
                 2869333.3211246063                1.0477830442416292e-16            -7.8761313477755064e-19              2                                    0                                  1                                   1                                      3                                   9.0119239433694073e-17          1.4659064990468837e-17             23.179925696620778                     23.832877308341594                       23.832877308341594               2                            2                          0                    0.79486346817125475  0.53418309672839182  0.26934507173140576
                 2425990.8537040958                9.9141443301078222e-17            -5.6368611230846953e-18              3                                    0                                  1                                   1                                      4                                   8.9047178828176044e-17          1.0094264472902172e-17             19.545653818241902                     23.832877308341594                       23.832877308341594               3                            3                          0                    0.7958329143358408   0.53482056991843052  0.2697861673895196 
                 1289248.884849757                 9.0343567989386161e-17            -8.7978753116920583e-18              4                                    0                                  1                                   1                                      5                                   8.6437186391539045e-17          3.906381597847112e-18             14.73047598690205                      23.832877308341594                       23.832877308341594               4                            4                          0                    0.79721029503759211  0.53570749321756705  0.27052792739231551
                 1282330.4409563811                9.0302956775452847e-17            -4.0611213933308612e-20              5                                    0                                  2                                   0                                      6                                   8.6415555410176751e-17          3.8874013652761058e-18             14.696514126535524                     23.832877308341594                       23.832877308341594               5                            5                          0                    0.79721527018134841  0.53571067759506108  0.27053427718070766
                 1233828.8141994432                9.0024131187509954e-17            -2.7882558794289625e-19              6                                    0                                  2                                   0                                      7                                   8.626413459585108e-17          3.7599965916588781e-18             14.612081451334127                     23.832877308341594                       23.832877308341594               6                            6                          0                    0.79724837884644473  0.535731807100021    0.27057814008914322
                 917144.40496506658                8.8138163205889932e-17            -1.885967981620024e-18              7                                    0                                  2                                   0                                      8                                   8.5053371471230229e-17          3.0847917346597077e-18             14.225025497936821                     23.832877308341594                       23.832877308341594               7                            7                          0                    0.79740498646948044  0.53582771689621522  0.27089213094126735
                 684204.54901326657                8.6117219135685205e-17            -2.0209440702047227e-18              8                                    0                                  2                                   0                                      9                                   8.2093185516905595e-17          4.0240336187796202e-18             15.001225342087514                     23.832877308341594                       23.832877308341594               8                            8                          0                    0.79697137023438624  0.53551220394057064  0.27138682683413556
                 681929.17776177963                8.6098429755244153e-17            -1.8789380441056826e-20              9                                    0                                  3                                   0                                      10                                  8.2085520384071722e-17          4.0129093711724248e-18             14.999149797815988                     23.832877308341594                       23.832877308341594               9                            9                          0                    0.79696891303095097  0.53551088517082146  0.2713948117883842 
                 665967.74995034828                8.5971671763599259e-17            -1.2675799164489845e-19              10                                   0                                  3                                   0                                      11                                  8.2031892542020541e-17          3.9397792215787191e-18             14.984897648782434                     23.832877308341594                       23.832877308341594               10                           10                         0                    0.79695021117791209  0.53550064044166745  0.27145019603042903
# Table End
