# ODT 1.0
# Table Start
# Title: mmArchive Data Table, Wed Jun 16 18:59:29 EDT 2010
# Columns: {Oxs_CGEvolve:evolve:Max mxHxm} {Oxs_CGEvolve:evolve:Total energy} {Oxs_CGEvolve:evolve:Delta E} {Oxs_CGEvolve:evolve:Bracket count} {Oxs_CGEvolve:evolve:Line min count} {Oxs_CGEvolve:evolve:Cycle count} {Oxs_CGEvolve:evolve:Cycle sub count} {Oxs_CGEvolve:evolve:Energy calc count} Oxs_UniaxialAnisotropy::Energy Oxs_UniformExchange::Energy {Oxs_UniformExchange::Max Spin Ang} {Oxs_UniformExchange::Stage Max Spin Ang} {Oxs_UniformExchange::Run Max Spin Ang} Oxs_MinDriver::Iteration {Oxs_MinDriver::Stage iteration} Oxs_MinDriver::Stage Oxs_MinDriver::mx    Oxs_MinDriver::my    Oxs_MinDriver::mz   
# Units:                 A/m                               J                                J                               {}                                   {}                                 {}                                  {}                                     {}                                  J                             J                              deg                                    deg                                      deg                              {}                           {}                         {}                 {}                   {}                   {}           
                 3190565.7815727256                6.2425544792935277e-17             6.2425544792935277e-17              0                                    0                                  1                                   1                                      1                                   5.2450452680140867e-17          9.9750921127944147e-18             23.832877308341594                     23.832877308341594                       23.832877308341594               0                            0                          0                    0.79415430728570313  0.53486364887231763  0.26863907773018231
                 3179827.9390859436                6.2359640124389037e-17            -6.5904668546243174e-20              1                                    0                                  1                                   1                                      2                                   5.2440497702399822e-17          9.9191424219892122e-18             23.761543208806579                     23.832877308341594                       23.832877308341594               1                            1                          0                    0.79417448489233     0.53487515720189982  0.26864655239611318
                 3104501.8220851664                6.1903841729427741e-17            -4.5579839496129902e-19              2                                    0                                  1                                   1                                      3                                   5.2370827736869551e-17          9.5330139925581845e-18             23.262257682406396                     23.832877308341594                       23.832877308341594               2                            2                          0                    0.79431392536000722  0.53495447450027767  0.26869825713703305
                 2492889.1122453264                5.8608155925425908e-17            -3.2956858040018266e-18              3                                    0                                  1                                   1                                      4                                   5.181480797182927e-17          6.7933479535966412e-18             19.274165751397074                     23.832877308341594                       23.832877308341594               3                            3                          0                    0.79531543595544207  0.53551082572317743  0.26907287840076383
                 1272553.6611264611                5.3176651472926959e-17            -5.4315044524989525e-18              4                                    0                                  1                                   1                                      5                                   5.0463643928288717e-17          2.713007544638242e-18             14.704019817793354                     23.832877308341594                       23.832877308341594               4                            4                          0                    0.79691294484754227  0.53629179431316254  0.26969966785124927
                 1266659.6555321284                5.3145253459061882e-17            -3.1398013865077261e-20              5                                    0                                  2                                   0                                      6                                   5.0449666525720165e-17          2.6955869333417164e-18             14.670443805009821                     23.832877308341594                       23.832877308341594               5                            5                          0                    0.79692336241632833  0.53629256809903592  0.26970460438351795
                 1225346.972908084                 5.2930112590177096e-17            -2.1514086888478634e-19              6                                    0                                  2                                   0                                      7                                   5.0351825992396392e-17          2.5782865977807028e-18             14.435377082790733                     23.832877308341594                       23.832877308341594               6                            6                          0                    0.79699410771299206  0.53629650387680505  0.2697384196292707 
                 1001004.8614330884                5.1502660181219864e-17            -1.4274524089572286e-18              7                                    0                                  2                                   0                                      8                                   4.9569863684748616e-17          1.9327964964712518e-18             13.280144813534262                     23.832877308341594                       23.832877308341594               7                            7                          0                    0.79742264023544984  0.5362349023436721   0.26996226962477304
                 685029.11991319899                5.0221932627158643e-17            -1.2807275540612209e-18              8                                    0                                  2                                   0                                      9                                   4.7664010878531291e-17          2.5579217486273542e-18             14.526879313767223                     23.832877308341594                       23.832877308341594               8                            8                          0                    0.79743636453424549  0.53538519785837391  0.27016137512930144
                 687238.74288052728                5.020705810549102e-17            -1.4874521667625139e-20              8                                    1                                  2                                   0                                      10                                  4.7846301043177462e-17          2.3607570623135554e-18             13.883083155680538                     23.832877308341594                       23.832877308341594               9                            9                          0                    0.79749952644529887  0.53551016562274956  0.27016383828282114
                 460887.18546979851                4.9248806000029557e-17            -9.582521054614648e-19              9                                    1                                  3                                   1                                      11                                  4.6219513572041463e-17          3.0292924279880923e-18             16.858769274268266                     23.832877308341594                       23.832877308341594               10                           10                         0                    0.79716623136877118  0.5331566066301282   0.27052524339681178
# Table End
