# ODT 1.0
# Table Start
# Title: mmArchive Data Table, Wed Jun 16 18:59:27 EDT 2010
# Columns: {Oxs_CGEvolve:evolve:Max mxHxm} {Oxs_CGEvolve:evolve:Total energy} {Oxs_CGEvolve:evolve:Delta E} {Oxs_CGEvolve:evolve:Bracket count} {Oxs_CGEvolve:evolve:Line min count} {Oxs_CGEvolve:evolve:Cycle count} {Oxs_CGEvolve:evolve:Cycle sub count} {Oxs_CGEvolve:evolve:Energy calc count} Oxs_UniaxialAnisotropy::Energy Oxs_UniformExchange::Energy {Oxs_UniformExchange::Max Spin Ang} {Oxs_UniformExchange::Stage Max Spin Ang} {Oxs_UniformExchange::Run Max Spin Ang} Oxs_MinDriver::Iteration {Oxs_MinDriver::Stage iteration} Oxs_MinDriver::Stage Oxs_MinDriver::mx    Oxs_MinDriver::my    Oxs_MinDriver::mz   
# Units:                 A/m                               J                                J                               {}                                   {}                                 {}                                  {}                                     {}                                  J                             J                              deg                                    deg                                      deg                              {}                           {}                         {}                 {}                   {}                   {}           
                 3209747.0663003894                3.3061380357494684e-17             3.3061380357494684e-17              0                                    0                                  1                                   1                                      1                                   2.8320201358489327e-17          4.7411789990053597e-18             23.832877308341594                     23.832877308341594                       23.832877308341594               0                            0                          0                    0.79533130753047454  0.53242514060583157  0.27011619392287084
                 3198970.1374704335                3.3031147898351603e-17            -3.0232459143084604e-20              1                                    0                                  1                                   1                                      2                                   2.8315234387244895e-17          4.7159135111067078e-18             23.753165415843348                     23.832877308341594                       23.832877308341594               1                            1                          0                    0.79534794391440045  0.53243832550421444  0.2701231649369969 
                 3123368.2343023825                3.2821928716186168e-17            -2.0921918216543052e-19              2                                    0                                  1                                   1                                      3                                   2.8280465541232509e-17          4.5414631749536606e-18             23.195198428193471                     23.832877308341594                       23.832877308341594               2                            2                          0                    0.7954627951015405   0.53252952264102249  0.27017140954762697
                 2509708.7521360754                3.1300717466006189e-17            -1.5212112501799819e-18              3                                    0                                  1                                   1                                      4                                   2.8002481819902222e-17          3.298235646103966e-18             19.495082263826095                     23.832877308341594                       23.832877308341594               3                            3                          0                    0.79628027672663537  0.53318988775524856  0.27052250046925447
                 1218088.1224514008                2.8721615254507119e-17            -2.5791022114990689e-18              4                                    0                                  1                                   1                                      5                                   2.7322426942488764e-17          1.3991883120183579e-18             15.178539002120615                     23.832877308341594                       23.832877308341594               4                            4                          0                    0.79752252628502596  0.53429265803735015  0.27112313582115621
                 1214148.1745806434                2.8704542160178855e-17            -1.70730943282667e-20              5                                    0                                  2                                   0                                      6                                   2.7314364366551223e-17          1.3901777936276307e-18             15.171170503489215                     23.832877308341594                       23.832877308341594               5                            5                          0                    0.79752762086257301  0.53430220210960744  0.2711278540587394 
                 1186482.7184842038                2.8587566525760098e-17            -1.1697563441875468e-19              6                                    0                                  2                                   0                                      7                                   2.7257927962465338e-17          1.3296385632947614e-18             15.119778004639347                     23.832877308341594                       23.832877308341594               6                            6                          0                    0.79756087275935328  0.53436737690852032  0.27116005607461147
                 960192.44529185269                2.7812144856552662e-17            -7.7542166920743692e-19              7                                    0                                  2                                   0                                      8                                   2.6806967653007106e-17          1.0051772035455555e-18             14.720838340852396                     23.832877308341594                       23.832877308341594               7                            7                          0                    0.79767487570455442  0.53478590266690984  0.27136572737703729
                 1016076.29938637                  2.7123454990864791e-17            -6.886898656878711e-19              8                                    0                                  2                                   0                                      9                                   2.5709256187151671e-17          1.414198803713118e-18             17.573988979405947                     23.832877308341594                       23.832877308341594               8                            8                          0                    0.79680519263880023  0.53504286130825718  0.27148257355084138
                 882394.52906867291                2.7114231075607251e-17            -9.223915257538766e-21              8                                    1                                  2                                   0                                      10                                  2.5821005106172254e-17          1.2932259694349989e-18             17.02370485579684                      23.832877308341594                       23.832877308341594               9                            9                          0                    0.7969700251830002   0.53506670774734466  0.27149581596436273
                 654476.31786139216                2.6483634957983182e-17            -6.3059611762406994e-19              9                                    1                                  3                                   1                                      11                                  2.4562063697176475e-17          1.9215712608067061e-18             19.753559251334799                     23.832877308341594                       23.832877308341594               10                           10                         0                    0.79360687690857701  0.53553105159922298  0.27135569662140691
# Table End
