# ODT 1.0
# Table Start
# Title: mmArchive Data Table, Wed Jun 16 18:59:50 EDT 2010
# Columns: {Oxs_CGEvolve:evolve:Max mxHxm} {Oxs_CGEvolve:evolve:Total energy} {Oxs_CGEvolve:evolve:Delta E} {Oxs_CGEvolve:evolve:Bracket count} {Oxs_CGEvolve:evolve:Line min count} {Oxs_CGEvolve:evolve:Cycle count} {Oxs_CGEvolve:evolve:Cycle sub count} {Oxs_CGEvolve:evolve:Energy calc count} Oxs_UniaxialAnisotropy::Energy Oxs_UniformExchange::Energy {Oxs_UniformExchange::Max Spin Ang} {Oxs_UniformExchange::Stage Max Spin Ang} {Oxs_UniformExchange::Run Max Spin Ang} Oxs_MinDriver::Iteration {Oxs_MinDriver::Stage iteration} Oxs_MinDriver::Stage Oxs_MinDriver::mx    Oxs_MinDriver::my    Oxs_MinDriver::mz   
# Units:                 A/m                               J                                J                               {}                                   {}                                 {}                                  {}                                     {}                                  J                             J                              deg                                    deg                                      deg                              {}                           {}                         {}                 {}                   {}                   {}           
                 3255833.8057013759                8.5271882171707273e-17             8.5271882171707273e-17              0                                    0                                  1                                   1                                      1                                   7.2480471244655983e-17          1.279141092705129e-17             24.218708087995687                     24.218708087995687                       24.218708087995687               0                            0                          0                    0.79363817455805474  0.53611029943304223  0.26853996224232496
                 3245304.0995220919                8.5188128842676206e-17            -8.3753329031071629e-20              1                                    0                                  1                                   1                                      2                                   7.2467328304156608e-17          1.27208005385196e-17             24.172671847710344                     24.218708087995687                       24.218708087995687               1                            1                          0                    0.79365526763385885  0.53612381137564413  0.26854746968152954
                 3171432.8164153472                8.4608825059319823e-17            -5.7930378335638227e-19              2                                    0                                  1                                   1                                      3                                   7.2375333541300679e-17          1.2233491518019143e-17             23.850417997701481                     24.218708087995687                       24.218708087995687               2                            2                          0                    0.79377324578007935  0.53621725003894405  0.26859945010893138
                 2571597.9482724783                8.0415811575553982e-17            -4.1930134837658391e-18              3                                    0                                  1                                   1                                      4                                   7.1640237129374767e-17          8.775574446179215e-18             21.39435588579715                      24.218708087995687                       24.218708087995687               3                            3                          0                    0.79461134499215336  0.53689252880536331  0.26897916528646393
                 1236644.8944670893                7.3465764076173597e-17            -6.9500474993803897e-18              4                                    0                                  1                                   1                                      5                                   6.9846182931579984e-17          3.6195811445936083e-18             17.501475357117556                     24.218708087995687                       24.218708087995687               4                            4                          0                    0.79587137355724746  0.53800910162621363  0.26963955324676175
                 1229531.0960583184                7.3422511722998876e-17            -4.3252353174717243e-20              5                                    0                                  2                                   0                                      6                                   6.9826902233178148e-17          3.5956094898207218e-18             17.461391501513276                     24.218708087995687                       24.218708087995687               5                            5                          0                    0.79587733946182682  0.53801744839065102  0.26964566489068026
                 1179660.6111278655                7.3126328621343874e-17            -2.9618310165500462e-19              6                                    0                                  2                                   0                                      7                                   6.9691926929844509e-17          3.4344016914993559e-18             17.181033871996803                     24.218708087995687                       24.218708087995687               6                            6                          0                    0.79591680477417537  0.53807431683562268  0.26968766222542018
                 864648.29135563388                7.1173074959445629e-17            -1.9532536618982412e-18              7                                    0                                  2                                   0                                      8                                   6.8612481294528934e-17          2.5605936649166891e-18             15.246869721544794                     24.218708087995687                       24.218708087995687               7                            7                          0                    0.79608775539043208  0.5384310820021514   0.26997414739931541
                 838811.58528214425                6.9529486789834711e-17            -1.6435881696109209e-18              8                                    0                                  2                                   0                                      9                                   6.5977924215025547e-17          3.5515625748091636e-18             16.109828158455734                     24.218708087995687                       24.218708087995687               8                            8                          0                    0.79541399265847845  0.53857045056274255  0.27030485114833352
                 675907.54112644994                6.9488609103609403e-17            -4.0877686225302896e-20              8                                    1                                  2                                   0                                      10                                  6.6329365693164264e-17          3.159243410445142e-18             15.952016624312026                     24.218708087995687                       24.218708087995687               9                            9                          0                    0.79559502474228361  0.5386124033425862   0.27029124596841497
                 586868.03906307695                6.821365920983423e-17            -1.274949893775179e-18              9                                    1                                  3                                   1                                      11                                  6.3983125983195986e-17          4.2305332266382359e-18             20.181904491317468                     24.218708087995687                       24.218708087995687               10                           10                         0                    0.79357558248915494  0.53847839997108049  0.27088849446221647
# Table End
