# ODT 1.0
# Table Start
# Title: mmArchive Data Table, Wed Jun 16 18:59:47 EDT 2010
# Columns: {Oxs_CGEvolve:evolve:Max mxHxm} {Oxs_CGEvolve:evolve:Total energy} {Oxs_CGEvolve:evolve:Delta E} {Oxs_CGEvolve:evolve:Bracket count} {Oxs_CGEvolve:evolve:Line min count} {Oxs_CGEvolve:evolve:Cycle count} {Oxs_CGEvolve:evolve:Cycle sub count} {Oxs_CGEvolve:evolve:Energy calc count} Oxs_UniaxialAnisotropy::Energy Oxs_UniformExchange::Energy {Oxs_UniformExchange::Max Spin Ang} {Oxs_UniformExchange::Stage Max Spin Ang} {Oxs_UniformExchange::Run Max Spin Ang} Oxs_MinDriver::Iteration {Oxs_MinDriver::Stage iteration} Oxs_MinDriver::Stage Oxs_MinDriver::mx    Oxs_MinDriver::my    Oxs_MinDriver::mz   
# Units:                 A/m                               J                                J                               {}                                   {}                                 {}                                  {}                                     {}                                  J                             J                              deg                                    deg                                      deg                              {}                           {}                         {}                 {}                   {}                   {}           
                 2983638.9923719098                4.3106382237645026e-17             4.3106382237645026e-17              0                                    0                                  1                                   1                                      1                                   3.6379225982639517e-17          6.727156255005512e-18             23.388245564023631                     23.388245564023631                       23.388245564023631               0                            0                          0                    0.79276119744796503  0.53620714652461232  0.26980348465149151
                 2974476.3445304898                4.3058605268919942e-17            -4.7776968725084195e-20              1                                    0                                  1                                   1                                      2                                   3.6371457916534085e-17          6.6871473523858625e-18             23.324138210898244                     23.388245564023631                       23.388245564023631               1                            1                          0                    0.79278363860106582  0.53621817164851882  0.26981102109940219
                 2910191.3442841717                4.2728381353021409e-17            -3.3022391589853694e-19              2                                    0                                  1                                   1                                      3                                   3.6317093459291651e-17          6.411287893729756e-18             22.875434338043817                     23.388245564023631                       23.388245564023631               2                            2                          0                    0.79293871921554926  0.53629395014382786  0.26986308248404167
                 2387768.1394745237                4.0353705449795253e-17            -2.3746759032261567e-18              3                                    0                                  1                                   1                                      4                                   3.5883276316507666e-17          4.4704291332875843e-18             19.915832506726062                     23.388245564023631                       23.388245564023631               3                            3                          0                    0.7940523076994721   0.53681222548952523  0.27023583425422026
                 1231442.1459124277                3.655063562639274e-17            -3.8030698234025088e-18              4                                    0                                  1                                   1                                      5                                   3.4830088343886135e-17          1.7205472825066066e-18             14.279245998464077                     23.388245564023631                       23.388245564023631               4                            4                          0                    0.79582442936276876  0.53742782474781892  0.27082374915260665
                 1223330.7458915552                3.6530706992301202e-17            -1.9928634091537991e-20              5                                    0                                  2                                   0                                      6                                   3.4820256625719468e-17          1.7104503665817342e-18             14.248403203864132                     23.388245564023631                       23.388245564023631               5                            5                          0                    0.79583703742807566  0.53742521007054822  0.270827106794646  
                 1166454.7913330649                3.6394015318176208e-17            -1.366916741249967e-19              6                                    0                                  2                                   0                                      7                                   3.475142841686126e-17          1.6425869013149504e-18             14.032504382121738                     23.388245564023631                       23.388245564023631               6                            6                          0                    0.7959232413812164   0.53740549974901231  0.27084990430166184
                 862110.74606580113                3.547805470333304e-17            -9.1596061484316811e-19              7                                    0                                  2                                   0                                      8                                   3.42008653114553e-17          1.277189391877739e-18             12.305640207179691                     23.388245564023631                       23.388245564023631               7                            7                          0                    0.79648312980009339  0.53715957840477413  0.27098791314537835
                 705861.5065725802                 3.457416534271417e-17            -9.0388936061887103e-19              8                                    0                                  2                                   0                                      9                                   3.2854748833933317e-17          1.7194165087808524e-18             14.460818487832539                     23.388245564023631                       23.388245564023631               8                            8                          0                    0.79687355814933958  0.53589741664952106  0.2709956033061004 
                 548695.30923282332                3.3879342697673742e-17            -6.948226450404258e-19              9                                    0                                  3                                   1                                      10                                  3.1552134301210832e-17          2.3272083964629078e-18             21.257133295604493                     23.388245564023631                       23.388245564023631               9                            9                          0                    0.7972031985789696   0.53188730844757504  0.27064623784510183
                 462058.30035042658                3.3862315040967038e-17            -1.7027656706707717e-20              9                                    1                                  3                                   1                                      11                                  3.1724293800234962e-17          2.1380212407320751e-18             20.171398024350054                     23.388245564023631                       23.388245564023631               10                           10                         0                    0.79728824771726903  0.53250827207059281  0.2707363245286753 
# Table End
