# ODT 1.0
# Table Start
# Title: mmArchive Data Table, Wed Jun 16 18:59:23 EDT 2010
# Columns: {Oxs_CGEvolve:evolve:Max mxHxm} {Oxs_CGEvolve:evolve:Total energy} {Oxs_CGEvolve:evolve:Delta E} {Oxs_CGEvolve:evolve:Bracket count} {Oxs_CGEvolve:evolve:Line min count} {Oxs_CGEvolve:evolve:Cycle count} {Oxs_CGEvolve:evolve:Cycle sub count} {Oxs_CGEvolve:evolve:Energy calc count} Oxs_UniaxialAnisotropy::Energy Oxs_UniformExchange::Energy {Oxs_UniformExchange::Max Spin Ang} {Oxs_UniformExchange::Stage Max Spin Ang} {Oxs_UniformExchange::Run Max Spin Ang} Oxs_MinDriver::Iteration {Oxs_MinDriver::Stage iteration} Oxs_MinDriver::Stage Oxs_MinDriver::mx    Oxs_MinDriver::my    Oxs_MinDriver::mz   
# Units:                 A/m                               J                                J                               {}                                   {}                                 {}                                  {}                                     {}                                  J                             J                              deg                                    deg                                      deg                              {}                           {}                         {}                 {}                   {}                   {}           
                 3189904.4389733705                3.7218788254372843e-17             3.7218788254372843e-17              0                                    0                                  1                                   1                                      1                                   3.2225205940864506e-17          4.993582313508338e-18             23.832877308341594                     23.832877308341594                       23.832877308341594               0                            0                          0                    0.79521361436950211  0.53250076391577994  0.26952676704580097
                 3179293.20161762                  3.718769915669469e-17            -3.1089097678154341e-20              1                                    0                                  1                                   1                                      2                                   3.221929688392903e-17          4.9684022727656603e-18             23.780094779763868                     23.832877308341594                       23.832877308341594               1                            1                          0                    0.79522981121598679  0.53251404840595695  0.2695320661883932 
                 3104834.0211294941                3.6972460198639817e-17            -2.1523895805487315e-19              2                                    0                                  1                                   1                                      3                                   3.2177942300733779e-17          4.7945178979060391e-18             23.410634127225237                     23.832877308341594                       23.832877308341594               2                            2                          0                    0.79534167125683897  0.53260600099152478  0.26956864067082004
                 2499028.3915691664                3.5401648979425802e-17            -1.5708112192140162e-18              3                                    0                                  1                                   1                                      4                                   3.1847865137170091e-17          3.5537838422557076e-18             20.457131737144991                     23.832877308341594                       23.832877308341594               3                            3                          0                    0.7961405887485743   0.53327616368533226  0.26982842539246743
                 1271909.5179451322                3.2689816872068738e-17            -2.7118321073570611e-18              4                                    0                                  1                                   1                                      5                                   3.1044629622897259e-17          1.6451872491714799e-18             17.40178874170789                      23.832877308341594                       23.832877308341594               4                            4                          0                    0.79737697769573623  0.53443339136625279  0.27021898053055066
                 1266910.5256362988                3.2671310568075231e-17            -1.8506303993510233e-20              5                                    0                                  2                                   0                                      6                                   3.1035652229132444e-17          1.6356583389427837e-18             17.367779259801971                     23.832877308341594                       23.832877308341594               5                            5                          0                    0.79738360265619834  0.53444304262941267  0.27021965481780635
                 1231849.1171170226                3.2544207358318913e-17            -1.2710320975631498e-19              6                                    0                                  2                                   0                                      7                                   3.0972814380984767e-17          1.5713929773341476e-18             17.131386622207984                     23.832877308341594                       23.832877308341594               6                            6                          0                    0.79742768800612018  0.53450905298020601  0.27022359420638087
                 947575.79631767701                3.1681817007586993e-17            -8.6239035073192146e-19              7                                    0                                  2                                   0                                      8                                   3.0470817394453671e-17          1.2109996131333231e-18             15.360855148640102                     23.832877308341594                       23.832877308341594               7                            7                          0                    0.79763601087148117  0.5349395850799461   0.27020595009908088
                 767548.10315588594                3.0735292522205952e-17            -9.4652448538103858e-19              8                                    0                                  2                                   0                                      9                                   2.9249354272171044e-17          1.4859382500349128e-18             16.916291607300533                     23.832877308341594                       23.832877308341594               8                            8                          0                    0.7970572361179179   0.53526499139479067  0.26979198662261633
                 766499.75071498426                3.0726586528836286e-17            -8.7059933696697109e-21              9                                    0                                  3                                   0                                      10                                  2.9245154263793574e-17          1.4814322650427128e-18             16.93498446831153                      23.832877308341594                       23.832877308341594               9                            9                          0                    0.79705384221069098  0.53527037589506388  0.26978634003980556
                 759089.81327756518                3.0667560710664097e-17            -5.9025818172188083e-20              10                                   0                                  3                                   0                                      11                                  2.9215767566936537e-17          1.4517931437275603e-18             17.066026024631054                     23.832877308341594                       23.832877308341594               10                           10                         0                    0.79702829094338179  0.53530686426906982  0.26974621272048471
# Table End
