# ODT 1.0
# Table Start
# Title: mmArchive Data Table, Wed Jun 16 18:59:49 EDT 2010
# Columns: {Oxs_CGEvolve:evolve:Max mxHxm} {Oxs_CGEvolve:evolve:Total energy} {Oxs_CGEvolve:evolve:Delta E} {Oxs_CGEvolve:evolve:Bracket count} {Oxs_CGEvolve:evolve:Line min count} {Oxs_CGEvolve:evolve:Cycle count} {Oxs_CGEvolve:evolve:Cycle sub count} {Oxs_CGEvolve:evolve:Energy calc count} Oxs_UniaxialAnisotropy::Energy Oxs_UniformExchange::Energy {Oxs_UniformExchange::Max Spin Ang} {Oxs_UniformExchange::Stage Max Spin Ang} {Oxs_UniformExchange::Run Max Spin Ang} Oxs_MinDriver::Iteration {Oxs_MinDriver::Stage iteration} Oxs_MinDriver::Stage Oxs_MinDriver::mx    Oxs_MinDriver::my    Oxs_MinDriver::mz   
# Units:                 A/m                               J                                J                               {}                                   {}                                 {}                                  {}                                     {}                                  J                             J                              deg                                    deg                                      deg                              {}                           {}                         {}                 {}                   {}                   {}           
                 3088347.1822259407                7.6525133718606266e-17             7.6525133718606266e-17              0                                    0                                  1                                   1                                      1                                   6.509545348370593e-17          1.1429680234900339e-17             22.777978336937363                     22.777978336937363                       22.777978336937363               0                            0                          0                    0.79411364574002441  0.53558790312587756  0.2678302272497784 
                 3079801.9437805014                7.6446877525030776e-17            -7.8256193575487094e-20              1                                    0                                  1                                   1                                      2                                   6.5083443536519976e-17          1.1363433988510807e-17             22.712822425446159                     22.777978336937363                       22.777978336937363               1                            1                          0                    0.79413434396112637  0.53559931423714202  0.2678368430020881 
                 3019828.2097929865                7.590586650327145e-17            -5.4101102175932452e-19              2                                    0                                  1                                   1                                      3                                   6.499937072380781e-17          1.0906495779463651e-17             22.257950816892851                     22.777978336937363                       22.777978336937363               2                            2                          0                    0.79427735850023162  0.53567789985779402  0.2678825103673475 
                 2530991.168269739                 7.200755307306901e-17            -3.898313430202439e-18              3                                    0                                  1                                   1                                      4                                   6.4327122883355846e-17          7.6804301897131656e-18             19.313239647081076                     22.777978336937363                       22.777978336937363               3                            3                          0                    0.79530298232912511  0.53622521133014034  0.26820727721867543
                 1278865.176332158                 6.5696791403199116e-17            -6.3107616698698983e-18              4                                    0                                  1                                   1                                      5                                   6.268494733252171e-17          3.0118440706774082e-18             15.653095804486069                     22.777978336937363                       22.777978336937363               4                            4                          0                    0.79692502144363753  0.53696083093211155  0.26869993392478458
                 1271565.809523877                 6.5662800188260883e-17            -3.3991214938232188e-20              5                                    0                                  2                                   0                                      6                                   6.266872492326279e-17          2.994075264998098e-18             15.659810054904002                     22.777978336937363                       22.777978336937363               5                            5                          0                    0.79693533714750731  0.53696153966316473  0.26870157086236396
                 1220400.4693124045                6.5429672770729601e-17            -2.3312741753128092e-19              6                                    0                                  2                                   0                                      7                                   6.2555153595152851e-17          2.8745191755767505e-18             15.707362973959086                     22.777978336937363                       22.777978336937363               6                            6                          0                    0.79700555978525467  0.53696514825851682  0.26871235318783432
                 991659.7703876798                 6.3868790362145616e-17            -1.5608824085839941e-18              7                                    0                                  2                                   0                                      8                                   6.1646424496665898e-17          2.2223658654797147e-18             16.12161745235921                      22.777978336937363                       22.777978336937363               7                            7                          0                    0.79744183838925287  0.53690906350596279  0.26875613536215448
                 701560.72069696931                6.2339631160216546e-17            -1.5291592019290692e-18              8                                    0                                  2                                   0                                      9                                   5.9422725786065912e-17          2.9169053741506296e-18             17.434583706862195                     22.777978336937363                       22.777978336937363               8                            8                          0                    0.7975626843213669   0.53613540674333526  0.26854634644732811
                 566241.58979020617                6.1277663006933329e-17            -1.0619681532832099e-18              9                                    0                                  3                                   1                                      10                                  5.7362473786137972e-17          3.9151892207953578e-18             24.034279052050262                     24.034279052050262                       24.034279052050262               9                            9                          0                    0.7972922203048507   0.5338148972683785   0.26764971469551568
                 469310.47660249018                6.1258418654820083e-17            -1.9244352113246561e-20              9                                    1                                  3                                   1                                      11                                  5.7602960796395167e-17          3.6554578584249175e-18             22.945599899787123                     24.034279052050262                       24.034279052050262               10                           10                         0                    0.79741614131775029  0.53414874453917327  0.26778494363212185
# Table End
