# ODT 1.0
# Table Start
# Title: mmArchive Data Table, Wed Jun 16 18:59:30 EDT 2010
# Columns: {Oxs_CGEvolve:evolve:Max mxHxm} {Oxs_CGEvolve:evolve:Total energy} {Oxs_CGEvolve:evolve:Delta E} {Oxs_CGEvolve:evolve:Bracket count} {Oxs_CGEvolve:evolve:Line min count} {Oxs_CGEvolve:evolve:Cycle count} {Oxs_CGEvolve:evolve:Cycle sub count} {Oxs_CGEvolve:evolve:Energy calc count} Oxs_UniaxialAnisotropy::Energy Oxs_UniformExchange::Energy {Oxs_UniformExchange::Max Spin Ang} {Oxs_UniformExchange::Stage Max Spin Ang} {Oxs_UniformExchange::Run Max Spin Ang} Oxs_MinDriver::Iteration {Oxs_MinDriver::Stage iteration} Oxs_MinDriver::Stage Oxs_MinDriver::mx    Oxs_MinDriver::my    Oxs_MinDriver::mz   
# Units:                 A/m                               J                                J                               {}                                   {}                                 {}                                  {}                                     {}                                  J                             J                              deg                                    deg                                      deg                              {}                           {}                         {}                 {}                   {}                   {}           
                 3243606.0491628777                8.6066787294419666e-17             8.6066787294419666e-17              0                                    0                                  1                                   1                                      1                                   7.3275376367368376e-17          1.279141092705129e-17             24.218708087995687                     24.218708087995687                       24.218708087995687               0                            0                          0                    0.79363817455805474  0.53611029943304223  0.26853996224232496
                 3233060.7224702295                8.5982409676920541e-17            -8.43776174991287e-20              1                                    0                                  1                                   1                                      2                                   7.3261896595836853e-17          1.2720513081083682e-17             24.172481713872315                     24.218708087995687                       24.218708087995687               1                            1                          0                    0.79365525169784656  0.53612401312838032  0.26854744932991464
                 3159080.9304238344                8.5398807559269755e-17            -5.8360211765078474e-19              2                                    0                                  1                                   1                                      3                                   7.3167544337435405e-17          1.2231263221834341e-17             23.848896689653515                     24.218708087995687                       24.218708087995687               2                            2                          0                    0.79377309943809526  0.53621885117012491  0.2685992809167228 
                 2558421.8535376587                8.1175967855086539e-17            -4.2228397041832104e-18              3                                    0                                  1                                   1                                      4                                   7.2413625727418208e-17          8.762342127668327e-18             21.438870233452793                     24.218708087995687                       24.218708087995687               3                            3                          0                    0.79460896199658704  0.53690451239839354  0.26897740348976223
                 1301518.1882236442                7.4187625121252223e-17            -6.9883427338343145e-18              4                                    0                                  1                                   1                                      5                                   7.0573867770775125e-17          3.6137573504771045e-18             17.654208933902517                     24.218708087995687                       24.218708087995687               4                            4                          0                    0.79585437207245613  0.5380405610662311   0.26963084431871548
                 1294540.5781714283                7.4146579672110834e-17            -4.1045449141388052e-20              5                                    0                                  2                                   0                                      6                                   7.0555212369843491e-17          3.5913673022673415e-18             17.61805347266337                      24.218708087995687                       24.218708087995687               5                            5                          0                    0.79585970073427059  0.53804876545941471  0.26963650514370785
                 1245615.5901025077                7.3865169062063033e-17            -2.8141061004780773e-19              6                                    0                                  2                                   0                                      7                                   7.0424617034469256e-17          3.4405520275937705e-18             17.365190449570719                     24.218708087995687                       24.218708087995687               6                            6                          0                    0.79589493134154576  0.53810479079313067  0.26967542418396345
                 850755.29312050424                7.198732532643778e-17            -1.8778437356252494e-18              7                                    0                                  2                                   0                                      8                                   6.938025938856717e-17          2.6070659378706145e-18             15.358949524139108                     24.218708087995687                       24.218708087995687               7                            7                          0                    0.79604625531986817  0.53846447464727554  0.26994218011703058
                 741092.32118252991                7.0204757908884584e-17            -1.7825674175531906e-18              8                                    0                                  2                                   0                                      9                                   6.6829434084497506e-17          3.375323824387082e-18             15.361273612733775                     24.218708087995687                       24.218708087995687               8                            8                          0                    0.79543133201101712  0.53868339180197011  0.27026141755047872
                 751683.09669284546                6.9005332417739496e-17            -1.1994254911450986e-18              9                                    0                                  3                                   1                                      10                                  6.4236896283483424e-17          4.7684361342560696e-18             20.567323457405127                     24.218708087995687                       24.218708087995687               9                            9                          0                    0.7928746940023661   0.5385530370835182   0.27086036409308017
                 472656.93623715622                6.8892122588153501e-17            -1.1320982958598741e-19              9                                    1                                  3                                   1                                      11                                  6.4819217021528501e-17          4.0729055666250008e-18             19.038325928281377                     24.218708087995687                       24.218708087995687               10                           10                         0                    0.79365830369651813  0.53872167519779746  0.27079550605478081
# Table End
