# ODT 1.0
# Table Start
# Title: mmArchive Data Table, Wed Jun 16 18:59:33 EDT 2010
# Columns: {Oxs_CGEvolve:evolve:Max mxHxm} {Oxs_CGEvolve:evolve:Total energy} {Oxs_CGEvolve:evolve:Delta E} {Oxs_CGEvolve:evolve:Bracket count} {Oxs_CGEvolve:evolve:Line min count} {Oxs_CGEvolve:evolve:Cycle count} {Oxs_CGEvolve:evolve:Cycle sub count} {Oxs_CGEvolve:evolve:Energy calc count} Oxs_UniaxialAnisotropy::Energy Oxs_UniformExchange::Energy {Oxs_UniformExchange::Max Spin Ang} {Oxs_UniformExchange::Stage Max Spin Ang} {Oxs_UniformExchange::Run Max Spin Ang} Oxs_MinDriver::Iteration {Oxs_MinDriver::Stage iteration} Oxs_MinDriver::Stage Oxs_MinDriver::mx    Oxs_MinDriver::my    Oxs_MinDriver::mz   
# Units:                 A/m                               J                                J                               {}                                   {}                                 {}                                  {}                                     {}                                  J                             J                              deg                                    deg                                      deg                              {}                           {}                         {}                 {}                   {}                   {}           
                 3520341.1062083882                1.7019619010019668e-16             1.7019619010019668e-16              0                                    0                                  1                                   1                                      1                                   1.4555707061592719e-16          2.4639119484269499e-17             22.995792189961314                     22.995792189961314                       22.995792189961314               0                            0                          0                    0.79466587739961814  0.53469599403646673  0.26851672685364403
                 3510452.2850383078                1.7004448596967927e-16            -1.5170413051741406e-19              1                                    0                                  1                                   1                                      2                                   1.4553240620422073e-16          2.4512079765458555e-17             22.962227351888966                     22.995792189961314                       22.995792189961314               1                            1                          0                    0.79468399946341584  0.53470594334324562  0.26852140239446787
                 3441042.9946997049                1.6899426663408531e-16            -1.0502193355939686e-18              2                                    0                                  1                                   1                                      3                                   1.4535976258108992e-16          2.3634504052995392e-17             22.727276182030003                     22.995792189961314                       22.995792189961314               2                            2                          0                    0.79480940957060342  0.53477459480207978  0.26855363467979515
                 2875093.5999506027                1.6133389623458178e-16            -7.6603703995035297e-18              3                                    0                                  1                                   1                                      4                                   1.4397987098880736e-16          1.735402524577441e-17             20.848084851669238                     22.995792189961314                       22.995792189961314               3                            3                          0                    0.79572135785004849  0.5352612280946657   0.26878020171619421
                 1512230.219082322                 1.4813650335906528e-16            -1.31973928755165e-17              4                                    0                                  1                                   1                                      5                                   1.4060637950937271e-16          7.530123849692562e-18             16.224567178176411                     22.995792189961314                       22.995792189961314               4                            4                          0                    0.79727088006437019  0.53598829756772859  0.26910186082201082
                 1505304.5259038296                1.4805662003170587e-16            -7.9883327359388795e-20              5                                    0                                  2                                   0                                      6                                   1.4057271324184084e-16          7.4839067898650412e-18             16.17899779253737                      22.995792189961314                       22.995792189961314               5                            5                          0                    0.79728197604637374  0.53599045252422606  0.26910197863821622
                 1456750.6623035476                1.4750810585287078e-16            -5.4851417883511524e-19              6                                    0                                  2                                   0                                      7                                   1.4033704196082362e-16          7.1710638920471532e-18             15.922486471795898                     22.995792189961314                       22.995792189961314               6                            6                          0                    0.79735786054224533  0.53600431861519737  0.26910219338538183
                 1092961.8445435562                1.4379429938575748e-16            -3.7138064671133003e-18              7                                    0                                  2                                   0                                      8                                   1.3845255499223105e-16          5.3417443935264118e-18             16.596889153631494                     22.995792189961314                       22.995792189961314               7                            7                          0                    0.7978520200718201   0.53603872258292506  0.26906557929050162
                 757787.64565602713                1.3978026569550252e-16            -4.0140336902549557e-18              8                                    0                                  2                                   0                                      9                                   1.3384536177133904e-16          5.9349039241634865e-18             18.48438654808675                      22.995792189961314                       22.995792189961314               8                            8                          0                    0.79820973827846675  0.53555116943831982  0.26868795427839981
                 756279.04445546784                1.3974617022410772e-16            -3.4095471394790432e-20              9                                    0                                  3                                   0                                      10                                  1.3382935668122304e-16          5.9168135428846901e-18             18.493403760905732                     22.995792189961314                       22.995792189961314               9                            9                          0                    0.79821587949334938  0.53554523178911395  0.26868272946273825
                 745657.32516137115                1.395159178959707e-16            -2.3025232813702063e-19              10                                   0                                  3                                   0                                      11                                  1.3371736421340745e-16          5.7985536825632563e-18             18.556574583543259                     22.995792189961314                       22.995792189961314               10                           10                         0                    0.79825733332826232  0.53550263710827861  0.26864564054432449
# Table End
