# ODT 1.0
# Table Start
# Title: mmArchive Data Table, Wed Jun 16 19:00:03 EDT 2010
# Columns: {Oxs_RungeKuttaEvolve:evolve:Total energy} {Oxs_RungeKuttaEvolve:evolve:Energy calc count} {Oxs_RungeKuttaEvolve:evolve:Max dm/dt} Oxs_RungeKuttaEvolve:evolve:dE/dt {Oxs_RungeKuttaEvolve:evolve:Delta E} Oxs_UniformExchange::Energy {Oxs_UniformExchange::Max Spin Ang} {Oxs_UniformExchange::Stage Max Spin Ang} {Oxs_UniformExchange::Run Max Spin Ang} Oxs_TimeDriver::Iteration {Oxs_TimeDriver::Stage iteration} Oxs_TimeDriver::Stage Oxs_TimeDriver::mx   Oxs_TimeDriver::my   Oxs_TimeDriver::mz   {Oxs_TimeDriver::Last time step} {Oxs_TimeDriver::Simulation time}
# Units:                       J                                            {}                                        deg/ns                                 J/s                                  J                                J                              deg                                    deg                                      deg                              {}                            {}                          {}                   {}                   {}                   {}                          s                                 s                
                       1.177858502097658e-16                          1                                           33373.078049284464                  -0.00022463417718858821                 0                                1.177858502097658e-16             24.266980752994527                     24.266980752994527                       24.266980752994527               0                             0                           0                     0.79517286415727995  0.53416496219096632  0.26796605751117142        0                                0                         
                       1.1772192500994058e-16                          7                                           33361.363821954998                  -0.00022449861250643712                -6.3925199825230512e-20              1.1772192500994058e-16             24.261759672086662                     24.266980752994527                       24.266980752994527               1                             1                           0                     0.7951746698925154   0.53416619060381598  0.26796667305453953        2.8466058737436973e-16              2.8466058737436973e-16       
                       1.174666097435307e-16                          13                                          33314.534424008547                  -0.00022395721149760046                -2.5531526640985886e-19              1.174666097435307e-16             24.240879320344188                     24.266980752994527                       24.266980752994527               2                             2                           0                     0.7951818831185874   0.53417109760332604  0.26796913194718303        1.1386423494974789e-15              1.4233029368718485e-15       
                       1.1645148994106309e-16                          19                                          33127.657277975137                  -0.00022180526983545627                -1.0151198024676231e-18              1.1645148994106309e-16             24.157421695502148                     24.266980752994527                       24.266980752994527               3                             3                           0                     0.79521058123321575  0.53419061961466996  0.26797891523815293        4.5545693979899156e-15              5.9778723348617638e-15       
                       1.1248754954887562e-16                          25                                          32440.624204701471                  -0.00021341223855658181                -3.9639403921874621e-18              1.1248754954887562e-16             23.824626464787233                     24.266980752994527                       24.266980752994527               4                             4                           0                     0.79532293800119036  0.53426703989199531  0.26801722542795864        1.8218277591959663e-14              2.4196149926821425e-14       
                       9.8071994599095324e-17                          31                                          29804.02015809427                   -0.00018304114617870494                -1.4415554949780305e-17              9.8071994599095324e-17             22.510930952947984                     24.266980752994527                       24.266980752994527               5                             5                           0                     0.79573588076830915  0.5345477398806141   0.2681581197705914         7.287311036783865e-14              9.7069260294660075e-14       
                       6.7966941266147348e-17                          37                                          23433.667034448114                  -0.00012066169738146184                -3.0105053332947976e-17              6.7966941266147348e-17             19.048880903168168                     24.266980752994527                       24.266980752994527               6                             6                           0                     0.79662725330264972  0.53515250657053326  0.26846259568628772        2.0129882381886206e-13              2.9836808411352214e-13       
                       4.5505995217720173e-17                          43                                          18646.598404817858                  -7.5622516064727629e-05                -2.2460946048427172e-17              4.5505995217720173e-17             17.256476705995077                     24.266980752994527                       24.266980752994527               7                             7                           0                     0.79733318008829102  0.53562998202728451  0.26870367235007031        2.3335043791327275e-13              5.3171852202679485e-13       
                       3.0650426669204611e-17                          49                                          14830.396126659794                  -4.7117540344070841e-05                -1.4855568548515562e-17              3.0650426669204611e-17             15.770788732990315                     24.266980752994527                       24.266980752994527               8                             8                           0                     0.79783577330412248  0.53596902083492393  0.26887492339695995        2.4702492166263623e-13              7.7874344368943107e-13       
                       2.0827592614134848e-17                          55                                          11961.549417653516                  -2.927210859354558e-05                -9.8228340550697606e-18              2.0827592614134848e-17             14.077305386421262                     24.266980752994527                       24.266980752994527               9                             9                           0                     0.79819755786890656  0.53621267400004036  0.26899783323984461        2.626201269387738e-13              1.041363570628205e-12       
                       1.4293464280306036e-17                          61                                          10388.059301356949                  -1.8163113473412167e-05                -6.5341283338288135e-18              1.4293464280306036e-17             12.344599973319932                     24.266980752994527                       24.266980752994527               10                            10                          0                     0.79846245239306124  0.5363909404323971   0.26908760234057461        2.8148857139396249e-13              1.3228521420221673e-12       
# Table End
