# ODT 1.0
# Table Start
# Title: mmArchive Data Table, Wed Jun 16 19:00:09 EDT 2010
# Columns: {Oxs_RungeKuttaEvolve:evolve:Total energy} {Oxs_RungeKuttaEvolve:evolve:Energy calc count} {Oxs_RungeKuttaEvolve:evolve:Max dm/dt} Oxs_RungeKuttaEvolve:evolve:dE/dt {Oxs_RungeKuttaEvolve:evolve:Delta E} Oxs_UniformExchange::Energy {Oxs_UniformExchange::Max Spin Ang} {Oxs_UniformExchange::Stage Max Spin Ang} {Oxs_UniformExchange::Run Max Spin Ang} Oxs_TimeDriver::Iteration {Oxs_TimeDriver::Stage iteration} Oxs_TimeDriver::Stage Oxs_TimeDriver::mx   Oxs_TimeDriver::my   Oxs_TimeDriver::mz   {Oxs_TimeDriver::Last time step} {Oxs_TimeDriver::Simulation time}
# Units:                       J                                            {}                                        deg/ns                                 J/s                                  J                                J                              deg                                    deg                                      deg                              {}                            {}                          {}                   {}                   {}                   {}                          s                                 s                
                      -6.3671134904199972e-16                          1                                           30741.32326124025                   -1.3099242004566595e-05                 0                               -6.3671134904199972e-16             23.832877308341594                     23.832877308341594                       23.832877308341594               0                             0                           0                     0.79403137612560648  0.53451889903926741  0.26954572146864975        0                                0                         
                      -6.3671539586800748e-16                          7                                           30731.746839478805                  -1.3091240211950873e-05                -4.0468260078138995e-21             -6.3671539586800748e-16             23.825734230471852                     23.832877308341594                       23.832877308341594               1                             1                           0                     0.79403324494715766  0.53452017991245393  0.2695463620174044         3.0903028862059221e-16              3.0903028862059221e-16       
                      -6.3673155846771609e-16                          13                                          30693.462109477616                  -1.3059284027439702e-05                -1.6162599708616019e-20             -6.3673155846771609e-16             23.797178999682448                     23.832877308341594                       23.832877308341594               2                             2                           0                     0.7940407100346315   0.53452529636780266  0.26954892076753767        1.2361211544823688e-15              1.5451514431029611e-15       
                      -6.3679581535674053e-16                          19                                          30540.65873905447                   -1.2932271427196351e-05                -6.4256889024439245e-20             -6.3679581535674053e-16             23.683231193574485                     23.832877308341594                       23.832877308341594               3                             3                           0                     0.79407040789430938  0.53454565006455801  0.26955910087579099        4.9444846179294754e-15              6.4896360610324369e-15       
                      -6.3704665784017011e-16                          25                                          29934.828355955462                  -1.2436985416188568e-05                -2.5084248342950257e-19             -6.3704665784017011e-16             23.231798558249885                     23.832877308341594                       23.832877308341594               4                             4                           0                     0.79418664303164366  0.53462530078385651  0.2695989573028188         1.9777938471717902e-14              2.6267574532750339e-14       
                      -6.3795780418999015e-16                          31                                          27598.341685483774                  -1.0646099671286543e-05                -9.1114634982005988e-19             -6.3795780418999015e-16             21.495045618888032                     23.832877308341594                       23.832877308341594               5                             5                           0                     0.79461332607660817  0.53491749760041341  0.26974542660459649        7.9111753886871606e-14              1.0537932841962195e-13       
                      -6.3987614458352558e-16                          37                                          21792.633842544554                  -6.9342139903942622e-06                -1.9183403935354496e-18             -6.3987614458352558e-16             17.322650778507843                     23.832877308341594                       23.832877308341594               6                             6                           0                     0.79554245876409579  0.53555234402479934  0.27006509520067179        2.2176946185256147e-13              3.2714879027218342e-13       
                      -6.4127039908969158e-16                          43                                          16462.216092486717                  -4.3203844667433497e-06                -1.3942545061660127e-18             -6.4127039908969158e-16             14.763837290264542                     23.832877308341594                       23.832877308341594               7                             7                           0                     0.79626064970683919  0.53604113061302594  0.2703124254229255         2.5273156607376141e-13              5.7988035634594483e-13       
                      -6.4218305638247297e-16                          49                                          12161.400517944383                  -2.6814292712216823e-06                -9.126572927813525e-19             -6.4218305638247297e-16             12.701137517687044                     23.832877308341594                       23.832877308341594               8                             8                           0                     0.79676811528848945  0.53638525121851288  0.27048687334002069        2.6610747939914584e-13              8.4598783574509067e-13       
                      -6.4278359504076361e-16                          55                                          9295.9206963217875                  -1.6598421298516633e-06                -6.0053865829069732e-19             -6.4278359504076361e-16             10.675018085071452                     23.832877308341594                       23.832877308341594               9                             9                           0                     0.79713313141492925  0.53663219178765154  0.27061199172953454        2.8260347551088153e-13              1.1285913112559721e-12       
                      -6.4318077936470082e-16                          61                                          7488.9434239531674                  -1.0277531189210246e-06                -3.9718432393713882e-19             -6.4318077936470082e-16             9.5612795607696626                     23.832877308341594                       23.832877308341594               10                            10                          0                     0.79740036928057179  0.53681277334354216  0.27070338454711296        3.0205944883078234e-13              1.4306507600867545e-12       
# Table End
