# ODT 1.0
# Table Start
# Title: mmArchive Data Table, Wed Jun 16 19:00:08 EDT 2010
# Columns: {Oxs_RungeKuttaEvolve:evolve:Total energy} {Oxs_RungeKuttaEvolve:evolve:Energy calc count} {Oxs_RungeKuttaEvolve:evolve:Max dm/dt} Oxs_RungeKuttaEvolve:evolve:dE/dt {Oxs_RungeKuttaEvolve:evolve:Delta E} Oxs_UniformExchange::Energy {Oxs_UniformExchange::Max Spin Ang} {Oxs_UniformExchange::Stage Max Spin Ang} {Oxs_UniformExchange::Run Max Spin Ang} Oxs_TimeDriver::Iteration {Oxs_TimeDriver::Stage iteration} Oxs_TimeDriver::Stage Oxs_TimeDriver::mx   Oxs_TimeDriver::my   Oxs_TimeDriver::mz   {Oxs_TimeDriver::Last time step} {Oxs_TimeDriver::Simulation time}
# Units:                       J                                            {}                                        deg/ns                                 J/s                                  J                                J                              deg                                    deg                                      deg                              {}                            {}                          {}                   {}                   {}                   {}                          s                                 s                
                       1.1757500028883767e-16                          1                                           33373.078049284464                  -0.00022389927770892257                 0                                1.1757500028883767e-16             24.266980752994527                     24.266980752994527                       24.266980752994527               0                             0                           0                     0.79517286415727995  0.53416496219096632  0.26796605751117142        0                                0                         
                       1.1751128419443075e-16                          7                                           33361.363821954998                  -0.00022376435580284321                -6.371609440691158e-20              1.1751128419443075e-16             24.261759672086662                     24.266980752994527                       24.266980752994527               1                             1                           0                     0.79517466665682057  0.53416618840503649  0.26796667196318996        2.8466058737436973e-16              2.8466058737436973e-16       
                       1.1725680352225101e-16                          13                                          33314.534424008547                  -0.00022322552054389495                -2.5448067217973638e-19              1.1725680352225101e-16             24.240879320344188                     24.266980752994527                       24.266980752994527               2                             2                           0                     0.79518186697181836  0.53417108663136581  0.26796912650106286        1.1386423494974789e-15              1.4233029368718485e-15       
                       1.1624499302767757e-16                          19                                          33127.657277975137                  -0.0002210837566873806                -1.0118104945734327e-18              1.1624499302767757e-16             24.157421695502148                     24.266980752994527                       24.266980752994527               3                             3                           0                     0.79521051394637277  0.53419057389884905  0.26797889254200907        4.5545693979899156e-15              5.9778723348617638e-15       
                       1.122938354644419e-16                          25                                          32387.211532820216                  -0.00021273010354306475                -3.9511575632356743e-18              1.122938354644419e-16             23.824626464787233                     24.266980752994527                       24.266980752994527               4                             4                           0                     0.7953226740289665   0.53426686064794737  0.26801713637473012        1.8218277591959663e-14              2.4196149926821425e-14       
                       9.7922781956601203e-17                          31                                          29539.151401938914                  -0.00018249699822380072                -1.43710535078407e-17              9.7922781956601203e-17             22.510930952947984                     24.266980752994527                       24.266980752994527               5                             5                           0                     0.79573494454982119  0.53454710563475683  0.26815780385926852        7.287311036783865e-14              9.7069260294660075e-14       
                       6.7898851491044537e-17                          37                                          23149.89701876547                   -0.00012037428280142871                -3.0023930465556666e-17              6.7898851491044537e-17             19.048880903167568                     24.266980752994527                       24.266980752994527               6                             6                           0                     0.79662517445681014  0.53515110679609312  0.26846189580903718        2.0129882381886544e-13              2.9836808411352553e-13       
                       4.5484792415327524e-17                          43                                          18646.598404818003                  -7.5489848770241802e-05                -2.2414059075717016e-17              4.5484792415327524e-17             17.25647670599513                      24.266980752994527                       24.266980752994527               7                             7                           0                     0.79733056543525072  0.53562823141112681  0.26870279714977724        2.3335043791326084e-13              5.3171852202678637e-13       
                       3.0651168893920488e-17                          49                                          14830.396133246022                  -4.7062576426561794e-05                -1.4833623521407033e-17              3.0651168893920488e-17             15.770788735982761                     24.266980752994527                       24.266980752994527               8                             8                           0                     0.79783303543445949  0.53596719542730431  0.26887401324024568        2.4702492118730267e-13              7.7874344321408899e-13       
                       2.0837312010531397e-17                          55                                          11961.54944056635                   -2.9253552842547578e-05                -9.8138568833890919e-18              2.0837312010531397e-17             14.077305418915007                     24.266980752994527                       24.266980752994527               9                             9                           0                     0.79819490090838452  0.53621090818023864  0.26899695578279409        2.6262012243506566e-13              1.0413635656491547e-12       
                       1.4305869955832571e-17                          61                                          10388.059374651006                  -1.8160073910352911e-05                -6.5314420546988256e-18              1.4305869955832571e-17             12.344421977178422                     24.266980752994527                       24.266980752994527               10                            10                          0                     0.79845996699743171  0.53638929305975469  0.26908678661898683        2.8148856480078402e-13              1.3228521304499386e-12       
# Table End
