# ODT 1.0
# Table Start
# Title: mmArchive Data Table, Wed Jun 16 19:00:37 EDT 2010
# Columns: {Oxs_RungeKuttaEvolve:evolve:Total energy} {Oxs_RungeKuttaEvolve:evolve:Energy calc count} {Oxs_RungeKuttaEvolve:evolve:Max dm/dt} Oxs_RungeKuttaEvolve:evolve:dE/dt {Oxs_RungeKuttaEvolve:evolve:Delta E} Oxs_UniformExchange::Energy {Oxs_UniformExchange::Max Spin Ang} {Oxs_UniformExchange::Stage Max Spin Ang} {Oxs_UniformExchange::Run Max Spin Ang} Oxs_TimeDriver::Iteration {Oxs_TimeDriver::Stage iteration} Oxs_TimeDriver::Stage Oxs_TimeDriver::mx   Oxs_TimeDriver::my   Oxs_TimeDriver::mz   {Oxs_TimeDriver::Last time step} {Oxs_TimeDriver::Simulation time}
# Units:                       J                                            {}                                        deg/ns                                 J/s                                  J                                J                              deg                                    deg                                      deg                              {}                            {}                          {}                   {}                   {}                   {}                          s                                 s                
                       1.2703344657167747e-16                          1                                           110404.7106269425                   -0.00037847445480590556                 0                                1.2703344657167747e-16             24.949551921938447                     24.949551921938447                       24.949551921938447               0                             0                           0                     0.7950160391955261   0.53424904898830461  0.26828212963972892        0                                0                         
                       1.2700088533590465e-16                          7                                           110366.18935707201                  -0.00037834951379677514                -3.2561235772835893e-20              1.2700088533590465e-16             24.947715887530702                     24.949551921938447                       24.949551921938447               1                             1                           0                     0.79501669864295399  0.53424949745159434  0.26828235440799481        8.6047053119866402e-17              8.6047053119866402e-17       
                       1.268707478394214e-16                          13                                          110212.21120598826                  -0.00037785022576785119                -1.3013749648323025e-19              1.268707478394214e-16             24.940372134795176                     24.949551921938447                       24.949551921938447               2                             2                           0                     0.79501933475570052  0.53425129015900408  0.26828325291363747        3.4418821247946561e-16              4.3023526559933198e-16       
                       1.2635191242073397e-16                          19                                          109598.00797115687                  -0.0003758606679356116                -5.1883541868743245e-19              1.2635191242073397e-16             24.911003349388427                     24.949551921938447                       24.949551921938447               3                             3                           0                     0.79502985243652669  0.53425844269845435  0.26828683787776053        1.3767528499178624e-15              1.8069881155171943e-15       
                       1.2430371333812154e-16                          25                                          107168.44676433511                  -0.00036802255961824977                -2.0481990826124377e-18              1.2430371333812154e-16             24.793632089751316                     24.949551921938447                       24.949551921938447               4                             4                           0                     0.7950714987280374   0.53428676286730103  0.26830103408762268        5.5070113996714498e-15              7.3139995151886445e-15       
                       1.1652723954265621e-16                          31                                          97879.222711683295                  -0.00033850644744273355                -7.776473795465333e-18              1.1652723954265621e-16             24.326075498996431                     24.949551921938447                       24.949551921938447               5                             5                           0                     0.79523153425845206  0.53439556839373814  0.26835560056696572        2.2028045598685799e-14              2.934204511387444e-14       
                       1.0115350494594617e-16                          37                                          80383.969145324052                  -0.00028141347455628131                -1.5373734596710042e-17              1.0115350494594617e-16             23.285058583396193                     24.949551921938447                       24.949551921938447               6                             6                           0                     0.79555798932105926  0.53461740157864202  0.26846696785797231        4.9763931578084888e-14              7.9105976691959322e-14       
                       8.7052805042190616e-17                          43                                          67250.593570964294                  -0.00023077763304027625                -1.410069990375555e-17              8.7052805042190616e-17             22.162577729336739                     24.949551921938447                       24.949551921938447               7                             7                           0                     0.79587169232223387  0.5348303971814472   0.26857403087290876        5.5273615393552255e-14              1.3437959208551159e-13       
                       7.510007642786479e-17                          49                                          56016.166414567371                  -0.00018942408212138616                -1.195272861432582e-17              7.510007642786479e-17             21.050187672260268                     24.949551921938447                       24.949551921938447               8                             8                           0                     0.79615121353730234  0.53502002514088132  0.2686694384451192         5.7111098232463703e-14              1.9149069031797528e-13       
                       6.4911472522207997e-17                          55                                          47200.595343975023                  -0.00015553797976560241                -1.0188603905656791e-17              6.4911472522207997e-17             20.128106598222271                     24.949551921938447                       24.949551921938447               9                             9                           0                     0.796402028480381    0.53519004253334501  0.26875503575371862        5.9301345297835017e-14              2.507920356158103e-13       
                       5.6164198915525111e-17                          61                                          42311.587238853346                  -0.0001276339679757172                -8.7472736066828875e-18              5.6164198915525111e-17             19.356886756949397                     24.949551921938447                       24.949551921938447               10                            10                          0                     0.79662904666187873  0.53534381399423614  0.26883248774583884        6.2025440979240749e-14              3.1281747659505103e-13       
# Table End
