# ODT 1.0
# Table Start
# Title: mmArchive Data Table, Wed Jun 16 19:00:12 EDT 2010
# Columns: {Oxs_RungeKuttaEvolve:evolve:Total energy} {Oxs_RungeKuttaEvolve:evolve:Energy calc count} {Oxs_RungeKuttaEvolve:evolve:Max dm/dt} Oxs_RungeKuttaEvolve:evolve:dE/dt {Oxs_RungeKuttaEvolve:evolve:Delta E} Oxs_UniformExchange::Energy {Oxs_UniformExchange::Max Spin Ang} {Oxs_UniformExchange::Stage Max Spin Ang} {Oxs_UniformExchange::Run Max Spin Ang} Oxs_TimeDriver::Iteration {Oxs_TimeDriver::Stage iteration} Oxs_TimeDriver::Stage Oxs_TimeDriver::mx   Oxs_TimeDriver::my   Oxs_TimeDriver::mz   {Oxs_TimeDriver::Last time step} {Oxs_TimeDriver::Simulation time}
# Units:                       J                                            {}                                        deg/ns                                 J/s                                  J                                J                              deg                                    deg                                      deg                              {}                            {}                          {}                   {}                   {}                   {}                          s                                 s                
                       7.3806007525270418e-18                          1                                           31409.880521054194                  -1.3317016673347198e-05                 0                                7.3806007525270418e-18             23.832877308341594                     23.832877308341594                       23.832877308341594               0                             0                           0                     0.79403137612560648  0.53451889903926741  0.26954572146864975        0                                0                         
                       7.3765742187296758e-18                          7                                           31399.67962157209                   -1.3308867472560244e-05                -4.0265337973658023e-21              7.3765742187296758e-18             23.82573984983344                      23.832877308341594                       23.832877308341594               1                             1                           0                     0.79403322027159973  0.53452016309650829  0.26954635355822909        3.0245259906773931e-16              3.0245259906773931e-16       
                       7.3604927069371975e-18                          13                                          31358.904186166408                  -1.3276323716315799e-05                -1.6081511792477833e-20              7.3604927069371975e-18             23.797208043643977                     23.832877308341594                       23.832877308341594               2                             2                           0                     0.79404058684206769  0.53452521241440865  0.26954887853444287        1.2098103962709572e-15              1.5122629953386967e-15       
                       7.2965588429372069e-18                          19                                          31196.25250460373                   -1.3146993431323274e-05                -6.393386399999028e-20              7.2965588429372069e-18             23.683368939574233                     23.832877308341594                       23.832877308341594               3                             3                           0                     0.79406989359078284  0.53454529957850272  0.26955892454939617        4.8392415850838289e-15              6.3515045804225257e-15       
                       7.0469853138389395e-18                          25                                          30552.812119956488                  -1.264293520850638e-05                -2.495735290982675e-19              7.0469853138389395e-18             23.232601701362245                     23.832877308341594                       23.832877308341594               4                             4                           0                     0.79418461116395411  0.53462391616100813  0.26959826050042107        1.9356966340335316e-14              2.5708470920757842e-14       
                       6.1404482881756956e-18                          31                                          28091.486535351767                  -1.082363634493909e-05                -9.0653702566324376e-19              6.1404482881756956e-18             21.501638402364584                     23.832877308341594                       23.832877308341594               5                             5                           0                     0.79460594335155266  0.53491246818444904  0.26974289227504855        7.7427865361341263e-14              1.0313633628209911e-13       
                       4.3040013880532393e-18                          37                                          22349.566794488521                  -7.2087657167256634e-06                -1.836446900122457e-18              4.3040013880532393e-18             17.493907405057477                     23.832877308341594                       23.832877308341594               6                             6                           0                     0.79548865249239287  0.53551568251817971  0.27004657409512128        2.0668636631482531e-13              3.0982270259692443e-13       
                       2.9094202712322107e-18                          43                                          16998.267386533171                  -4.5579114863981584e-06                -1.3945811168210282e-18              2.9094202712322107e-18             14.959670847363558                     23.832877308341594                       23.832877308341594               7                             7                           0                     0.79620027110951519  0.53600014213254144  0.27029165465040911        2.415350988548108e-13              5.5135780145173522e-13       
                       1.9696670133998809e-18                          49                                          12621.265152145148                  -2.8496505412408204e-06                -9.3975325783233001e-19              1.9696670133998809e-18             12.928116520070358                     23.832877308341594                       23.832877308341594               8                             8                           0                     0.79671683898893686  0.53635054122882087  0.27046927885434446        2.5885743096119603e-13              8.1021523241293125e-13       
                       1.3430710277769177e-18                          55                                          9582.4667494575897                  -1.7710291827411414e-06                -6.2659598562296313e-19              1.3430710277769177e-18             10.913750827710079                     23.832877308341594                       23.832877308341594               9                             9                           0                     0.79709259266075416  0.53660479384924287  0.27059811848630921        2.7694246896126603e-13              1.0871577013741973e-12       
                       9.257033138156386e-19                          61                                          7694.3663279400553                  -1.0984061067200543e-06                -4.1736771396127915e-19              9.257033138156386e-19             9.723752772560557                      23.832877308341594                       23.832877308341594               10                            10                          0                     0.79736911708515135  0.53679166673338441  0.27069270606270895        2.9724151742149848e-13              1.3843992187956957e-12       
# Table End
