# ODT 1.0
# Table Start
# Title: mmArchive Data Table, Wed Jun 16 19:00:39 EDT 2010
# Columns: {Oxs_RungeKuttaEvolve:evolve:Total energy} {Oxs_RungeKuttaEvolve:evolve:Energy calc count} {Oxs_RungeKuttaEvolve:evolve:Max dm/dt} Oxs_RungeKuttaEvolve:evolve:dE/dt {Oxs_RungeKuttaEvolve:evolve:Delta E} Oxs_UniformExchange::Energy {Oxs_UniformExchange::Max Spin Ang} {Oxs_UniformExchange::Stage Max Spin Ang} {Oxs_UniformExchange::Run Max Spin Ang} Oxs_TimeDriver::Iteration {Oxs_TimeDriver::Stage iteration} Oxs_TimeDriver::Stage Oxs_TimeDriver::mx   Oxs_TimeDriver::my   Oxs_TimeDriver::mz   {Oxs_TimeDriver::Last time step} {Oxs_TimeDriver::Simulation time}
# Units:                       J                                            {}                                        deg/ns                                 J/s                                  J                                J                              deg                                    deg                                      deg                              {}                            {}                          {}                   {}                   {}                   {}                          s                                 s                
                       4.9583818651399732e-17                          1                                           23134.796694333338                  -5.2784617299838546e-05                 0                                4.9583818651399732e-17             24.949551921938447                     24.949551921938447                       24.949551921938447               0                             0                           0                     0.7950160391955261   0.53424904898830461  0.26828212963972892        0                                0                         
                       4.9562148923519662e-17                          7                                           23126.788744179023                  -5.275743762045744e-05                -2.1669727880068113e-20              4.9562148923519662e-17             24.945777732352173                     24.949551921938447                       24.949551921938447               1                             1                           0                     0.79501726744973755  0.53424988426617281  0.26828254830965736        4.1063684827310112e-16              4.1063684827310112e-16       
                       4.9475581528902863e-17                          13                                          23094.781897924211                  -5.2648869652117844e-05                -8.6567394616799552e-20              4.9475581528902863e-17             24.930681421747007                     24.949551921938447                       24.949551921938447               2                             2                           0                     0.79502217514113438  0.53425322174133671  0.26828422118520118        1.6425473930924045e-15              2.0531842413655056e-15       
                       4.913108930644446e-17                          19                                          22967.153179975678                  -5.2217000179584387e-05                -3.4449222245840572e-19              4.913108930644446e-17             24.870303560900219                     24.949551921938447                       24.949551921938447               3                             3                           0                     0.79504172100282056  0.53426651366781241  0.26829088392194467        6.5701895723696179e-15              8.6233738137351243e-15       
                       4.7781120895441146e-17                          25                                          22462.978112547393                  -5.0527354351178113e-05                -1.3499684110033145e-18              4.7781120895441146e-17             24.62892410906581                      24.949551921938447                       24.949551921938447               4                             4                           0                     0.79511856517407609  0.53431876686914037  0.2683170810309653         2.6280758289478472e-14              3.4904132103213598e-14       
                       4.2802581099477073e-17                          31                                          20545.162615326542                  -4.4337050434275563e-05                -4.9785397959640726e-18              4.2802581099477073e-17             23.666393943190737                     24.949551921938447                       24.949551921938447               5                             5                           0                     0.79540568641167175  0.53451394776896788  0.26841500011698483        1.0512303315791389e-13              1.4002716526112748e-13       
                       3.1654114238174904e-17                          37                                          16094.730817605659                  -3.0772771800129526e-05                -1.1148466861302169e-17              3.1654114238174904e-17             20.96457053373457                      24.949551921938447                       24.949551921938447               6                             6                           0                     0.79607578928318823  0.5349690156051492   0.26864370030023293        3.0046486041678672e-13              4.4049202567791418e-13       
                       2.2874183556986331e-17                          43                                          12990.223593664612                  -2.0517519044333962e-05                -8.7799306811885728e-18              2.2874183556986331e-17             19.352335810128157                     24.949551921938447                       24.949551921938447               7                             7                           0                     0.79664350313304833  0.53535388148433483  0.2688375038655888         3.4757964818153977e-13              7.88071673859454e-13       
                       1.6653603662712943e-17                          49                                          10602.828774040488                  -1.3621563936207186e-05                -6.2205798942733883e-18              1.6653603662712943e-17             17.783590879747923                     24.949551921938447                       24.949551921938447               8                             8                           0                     0.79708256719604398  0.53565102083773242  0.26898726972211973        3.7021534687256339e-13              1.1582870207320174e-12       
                       1.2234571546683834e-17                          55                                          9002.1392268047657                  -9.0209533273520763e-06                -4.4190321160291093e-18              1.2234571546683834e-17             16.551078104645011                     24.949551921938447                       24.949551921938447               9                             9                           0                     0.79742693131238562  0.53588375533970578  0.26910456964110291        3.9675000631942956e-13              1.555037027051447e-12       
                       9.0755449627486017e-18                          61                                          7586.8620096734812                  -5.9681080057227171e-06                -3.1590265839352318e-18              9.0755449627486017e-18             15.501313574559953                     24.949551921938447                       24.949551921938447               10                            10                          0                     0.79770170555640951  0.53606928396947795  0.26919802861228004        4.286512554865842e-13              1.9836882825380313e-12       
# Table End
