# ODT 1.0
# Table Start
# Title: mmArchive Data Table, Wed Jun 16 19:00:31 EDT 2010
# Columns: {Oxs_RungeKuttaEvolve:evolve:Total energy} {Oxs_RungeKuttaEvolve:evolve:Energy calc count} {Oxs_RungeKuttaEvolve:evolve:Max dm/dt} Oxs_RungeKuttaEvolve:evolve:dE/dt {Oxs_RungeKuttaEvolve:evolve:Delta E} Oxs_UniformExchange::Energy {Oxs_UniformExchange::Max Spin Ang} {Oxs_UniformExchange::Stage Max Spin Ang} {Oxs_UniformExchange::Run Max Spin Ang} Oxs_TimeDriver::Iteration {Oxs_TimeDriver::Stage iteration} Oxs_TimeDriver::Stage Oxs_TimeDriver::mx   Oxs_TimeDriver::my   Oxs_TimeDriver::mz   {Oxs_TimeDriver::Last time step} {Oxs_TimeDriver::Simulation time}
# Units:                       J                                            {}                                        deg/ns                                 J/s                                  J                                J                              deg                                    deg                                      deg                              {}                            {}                          {}                   {}                   {}                   {}                          s                                 s                
                       9.1984317137506117e-18                          1                                           38998.295556195095                  -2.1154697362380808e-05                 0                                9.1984317137506117e-18             23.832877308341594                     23.832877308341594                       23.832877308341594               0                             0                           0                     0.79403137612560648  0.53451889903926741  0.26954572146864975        0                                0                         
                       9.1932791297864064e-18                          7                                           38986.030523567795                  -2.1141401869025531e-05                -5.152583964206094e-21              9.1932791297864064e-18             23.825750744347534                     23.832877308341594                       23.832877308341594               1                             1                           0                     0.79403322443238078  0.53452014489720634  0.26954637431492801        2.4360038982500791e-16              2.4360038982500791e-16       
                       9.1727011551445131e-18                          13                                          38936.996100617136                  -2.1088307596195058e-05                -2.0577974641892544e-20              9.1727011551445131e-18             23.797260411627597                     23.832877308341594                       23.832877308341594               2                             2                           0                     0.79404060750848571  0.53452512121997675  0.26954898209231459        9.7440155930003162e-16              1.2180019491250396e-15       
                       9.0909046503894275e-18                          19                                          38741.270136392639                  -2.0877327202789948e-05                -8.1796504755085337e-20              9.0909046503894275e-18             23.683553755377186                     23.832877308341594                       23.832877308341594               3                             3                           0                     0.79406997810219426  0.53454491326631903  0.26955935571159995        3.8976062372001265e-15              5.1156081863251663e-15       
                       8.7718143885274349e-18                          25                                          37964.978824032449                  -2.0055341653540728e-05                -3.1909026186199396e-19              8.7718143885274349e-18             23.232795536373075                     23.832877308341594                       23.832877308341594               4                             4                           0                     0.79418491761165166  0.53462230105025399  0.26959994508826668        1.5590424948800506e-14              2.0706033135125675e-14       
                       7.6158741320147154e-18                          31                                          34966.930436845498                  -1.709344157184394e-05                -1.1559402565127185e-18              7.6158741320147154e-18             21.494409589087329                     23.832877308341594                       23.832877308341594               5                             5                           0                     0.79460668523390354  0.5349052786943872   0.26974871777285608        6.2361699795202024e-14              8.3067732930327708e-14       
                       5.3598734916924451e-18                          37                                          28049.296676074588                  -1.1410581180955828e-05                -2.2560006403222708e-18              5.3598734916924451e-18             17.534476717931689                     23.832877308341594                       23.832877308341594               6                             6                           0                     0.79546224690726408  0.53547343042907591  0.27004838839030787        1.6055729420218007e-13              2.4362502713250777e-13       
                       3.6844234119105808e-18                          43                                          21578.050481502141                  -7.3255913272548309e-06                -1.675450079781864e-18              3.6844234119105808e-18             15.492571445541937                     23.832877308341594                       23.832877308341594               7                             7                           0                     0.79614201138998064  0.53591793233048768  0.27028141345715456        1.8197998935818551e-13              4.2560501649069327e-13       
                       2.5561568415050742e-18                          49                                          16212.85396624631                   -4.6911568187390692e-06                -1.1282665704055068e-18              2.5561568415050742e-18             13.663331632228047                     23.832877308341594                       23.832877308341594               8                             8                           0                     0.79663837946433025  0.53623881892475     0.27044550024918046        1.9117736946858501e-13              6.1678238595927825e-13       
                       1.7929589251396658e-18                          55                                          12628.854151403744                  -3.001929902480398e-06                -7.6319791636540808e-19              1.7929589251396658e-18             11.788629199277297                     23.832877308341594                       23.832877308341594               9                             9                           0                     0.79700581614845922  0.53647598601021107  0.27056155020452921        2.0209392660175404e-13              8.1887631256103237e-13       
                       1.2731127464978086e-18                          61                                          10346.901301472473                  -1.9234127844927028e-06                -5.198461786418574e-19              1.2731127464978086e-18             9.9131258037844887                     23.832877308341594                       23.832877308341594               10                            10                          0                     0.79728173517314727  0.53665612214905711  0.27064485184340753        2.1509241022861449e-13              1.0339687227896467e-12       
# Table End
