# ODT 1.0
# Table Start
# Title: mmArchive Data Table, Wed Jun 16 19:00:26 EDT 2010
# Columns: {Oxs_RungeKuttaEvolve:evolve:Total energy} {Oxs_RungeKuttaEvolve:evolve:Energy calc count} {Oxs_RungeKuttaEvolve:evolve:Max dm/dt} Oxs_RungeKuttaEvolve:evolve:dE/dt {Oxs_RungeKuttaEvolve:evolve:Delta E} Oxs_UniformExchange::Energy {Oxs_UniformExchange::Max Spin Ang} {Oxs_UniformExchange::Stage Max Spin Ang} {Oxs_UniformExchange::Run Max Spin Ang} Oxs_TimeDriver::Iteration {Oxs_TimeDriver::Stage iteration} Oxs_TimeDriver::Stage Oxs_TimeDriver::mx   Oxs_TimeDriver::my   Oxs_TimeDriver::mz   {Oxs_TimeDriver::Last time step} {Oxs_TimeDriver::Simulation time}
# Units:                       J                                            {}                                        deg/ns                                 J/s                                  J                                J                              deg                                    deg                                      deg                              {}                            {}                          {}                   {}                   {}                   {}                          s                                 s                
                       7.1914877377156291e-17                          1                                           44728.669994467033                  -0.00017721686099102168                 0                                7.1914877377156291e-17             24.949551921938447                     24.949551921938447                       24.949551921938447               0                             0                           0                     0.79550929367512391  0.53375555683361497  0.26788559365217446        0                                0                         
                       7.1877934141521662e-17                          7                                           44714.280274567311                  -0.0001771136572541824                -3.6943235634627828e-20              7.1877934141521662e-17             24.944457037929034                     24.949551921938447                       24.949551921938447               1                             1                           0                     0.79551101773223343  0.53375673597390216  0.2678861191966232         2.1239173892662484e-16              2.1239173892662484e-16       
                       7.1730377851641358e-17                          13                                          44656.754428000575                  -0.00017670147811232661                -1.4755628988030336e-19              7.1730377851641358e-17             24.924080609602992                     24.949551921938447                       24.949551921938447               2                             2                           0                     0.79551790482375062  0.53376144651894686  0.26788821842617866        8.4956695570649936e-16              1.0619586946331241e-15       
                       7.1143604156168358e-17                          19                                          44427.179934140921                  -0.00017506288994952962                -5.8677369547299229e-19              7.1143604156168358e-17             24.842624886308677                     24.949551921938447                       24.949551921938447               3                             3                           0                     0.79554530758611586  0.53378019283057254  0.26789656837401243        3.3982678228259975e-15              4.4602265174591218e-15       
                       6.8850786814904446e-17                          25                                          43517.366131646777                  -0.00016866778130364491                -2.2928173412639212e-18              6.8850786814904446e-17             24.51761878998726                      24.949551921938447                       24.949551921938447               4                             4                           0                     0.79565262607777687  0.53385366876236662  0.26792922936883845        1.359307129130399e-14              1.8053297808763111e-14       
                       6.0490517501526301e-17                          31                                          40014.915400265949                  -0.00014546437453046663                -8.3602693133781345e-18              6.0490517501526301e-17             23.231720300484312                     24.949551921938447                       24.949551921938447               5                             5                           0                     0.79604747852729285  0.53412491790931504  0.26804882717454126        5.4372285165215959e-14              7.242558297397907e-14       
                       4.361470728855899e-17                          37                                          31867.935032889454                  -9.9356837402945098e-05                -1.6875810212967314e-17              4.361470728855899e-17             19.98645810571178                      24.949551921938447                       24.949551921938447               6                             6                           0                     0.79686570443327953  0.5346932819472171   0.2682936393735757         1.4268679447743193e-13              2.15112377451411e-13       
                       3.0678527245532282e-17                          43                                          26023.866669758583                  -6.5047892096524503e-05                -1.293618004302671e-17              3.0678527245532282e-17             16.543866700601061                     24.949551921938447                       24.949551921938447               7                             7                           0                     0.79752111991711661  0.5351582608272607   0.26848690886903698        1.6400818569465952e-13              3.7912056314607049e-13       
                       2.1751247938717707e-17                          49                                          21049.749623729473                  -4.2283255720413406e-05                -8.9272793068145728e-18              2.1751247938717707e-17             15.006645316151243                     24.949551921938447                       24.949551921938447               8                             8                           0                     0.79799762233336569  0.53550508300316946  0.26862642124704433        1.74221817323578e-13              5.533423804696485e-13       
                       1.5605637865342179e-17                          55                                          16724.028106843529                  -2.7357583328486137e-05                -6.1456100733755277e-18              1.5605637865342179e-17             13.810390992089776                     24.949551921938447                       24.949551921938447               9                             9                           0                     0.79834611318786686  0.53576522759297773  0.26872829275952409        1.8570250856649342e-13              7.3904488903614189e-13       
                       1.1362712869439399e-17                          61                                          14477.007747510508                  -1.7646952623922488e-05                -4.2429249959027821e-18              1.1362712869439399e-17             12.455545588146164                     24.949551921938447                       24.949551921938447               10                            10                          0                     0.79860449543486323  0.53596225565980438  0.2688031549092364         1.9918212293415623e-13              9.3822701197029808e-13       
# Table End
