# ODT 1.0
# Table Start
# Title: mmArchive Data Table, Wed Jun 16 19:00:07 EDT 2010
# Columns: {Oxs_RungeKuttaEvolve:evolve:Total energy} {Oxs_RungeKuttaEvolve:evolve:Energy calc count} {Oxs_RungeKuttaEvolve:evolve:Max dm/dt} Oxs_RungeKuttaEvolve:evolve:dE/dt {Oxs_RungeKuttaEvolve:evolve:Delta E} Oxs_UniformExchange::Energy {Oxs_UniformExchange::Max Spin Ang} {Oxs_UniformExchange::Stage Max Spin Ang} {Oxs_UniformExchange::Run Max Spin Ang} Oxs_TimeDriver::Iteration {Oxs_TimeDriver::Stage iteration} Oxs_TimeDriver::Stage Oxs_TimeDriver::mx   Oxs_TimeDriver::my   Oxs_TimeDriver::mz   {Oxs_TimeDriver::Last time step} {Oxs_TimeDriver::Simulation time}
# Units:                       J                                            {}                                        deg/ns                                 J/s                                  J                                J                              deg                                    deg                                      deg                              {}                            {}                          {}                   {}                   {}                   {}                          s                                 s                
                       7.3502509580003145e-18                          1                                           30741.32326124025                   -1.3099242004566593e-05                 0                                7.3502509580003145e-18             23.832877308341594                     23.832877308341594                       23.832877308341594               0                             0                           0                     0.79403137612560648  0.53451889903926741  0.26954572146864975        0                                0                         
                       7.3462041319925008e-18                          7                                           30731.746839478801                  -1.3091240211950871e-05                -4.0468260078138995e-21              7.3462041319925008e-18             23.825734230471852                     23.832877308341594                       23.832877308341594               1                             1                           0                     0.79403324494715766  0.53452017991245393  0.2695463620174044         3.0903028862059221e-16              3.0903028862059221e-16       
                       7.3300415322838838e-18                          13                                          30693.462109477616                  -1.3059284027439702e-05                -1.6162599708616016e-20              7.3300415322838838e-18             23.797178999682448                     23.832877308341594                       23.832877308341594               2                             2                           0                     0.7940407100346315   0.53452529636780266  0.26954892076753767        1.2361211544823688e-15              1.5451514431029611e-15       
                       7.265784643259454e-18                          19                                          30540.658739054466                  -1.2932271427196349e-05                -6.4256889024430434e-20              7.265784643259454e-18             23.683231193574485                     23.832877308341594                       23.832877308341594               3                             3                           0                     0.79407040789430938  0.53454565006455801  0.26955910087579099        4.9444846179294754e-15              6.4896360610324369e-15       
                       7.0149421598299438e-18                          25                                          29934.828355955458                  -1.2436985416188568e-05                -2.5084248342951037e-19              7.0149421598299438e-18             23.231798558249885                     23.832877308341594                       23.832877308341594               4                             4                           0                     0.79418664303164366  0.53462530078385651  0.2695989573028188         1.9777938471717902e-14              2.6267574532750339e-14       
                       6.1037958100098824e-18                          31                                          27598.341685483774                  -1.0646099671286542e-05                -9.1114634982006084e-19              6.1037958100098824e-18             21.495045618888032                     23.832877308341594                       23.832877308341594               5                             5                           0                     0.79461332607660817  0.53491749760041341  0.26974542660459649        7.9111753886871606e-14              1.0537932841962195e-13       
                       4.1854554164744343e-18                          37                                          21792.633842544557                  -6.9342139903942648e-06                -1.9183403935354481e-18              4.1854554164744343e-18             17.322650778507846                     23.832877308341594                       23.832877308341594               6                             6                           0                     0.79554245876409579  0.53555234402479934  0.27006509520067179        2.2176946185256125e-13              3.2714879027218322e-13       
                       2.7912009103084215e-18                          43                                          16462.21609248672                   -4.3203844667433514e-06                -1.3942545061660132e-18              2.7912009103084215e-18             14.763837290264544                     23.832877308341594                       23.832877308341594               7                             7                           0                     0.79626064970683919  0.53604113061302594  0.2703124254229255         2.5273156607376141e-13              5.7988035634594462e-13       
                       1.8785436175270688e-18                          49                                          12161.400517944388                  -2.681429271221684e-06                -9.126572927813525e-19              1.8785436175270688e-18             12.701137517687046                     23.832877308341594                       23.832877308341594               8                             8                           0                     0.79676811528848945  0.53638525121851288  0.27048687334002069        2.6610747939914569e-13              8.4598783574509036e-13       
                       1.2780049592363711e-18                          55                                          9295.9206963217894                  -1.6598421298516641e-06                -6.005386582906977e-19              1.2780049592363711e-18             10.675018085071454                     23.832877308341594                       23.832877308341594               9                             9                           0                     0.79713313141492925  0.53663219178765154  0.27061199172953454        2.8260347551088158e-13              1.1285913112559719e-12       
                       8.8082063529923231e-19                          61                                          7488.9434239531702                  -1.0277531189210254e-06                -3.9718432393713877e-19              8.8082063529923231e-19             9.5612795607696661                     23.832877308341594                       23.832877308341594               10                            10                          0                     0.79740036928057179  0.53681277334354216  0.27070338454711296        3.0205944883078214e-13              1.4306507600867541e-12       
# Table End
