# ODT 1.0
# Table Start
# Title: mmArchive Data Table, Wed Jun 16 19:00:27 EDT 2010
# Columns: {Oxs_RungeKuttaEvolve:evolve:Total energy} {Oxs_RungeKuttaEvolve:evolve:Energy calc count} {Oxs_RungeKuttaEvolve:evolve:Max dm/dt} Oxs_RungeKuttaEvolve:evolve:dE/dt {Oxs_RungeKuttaEvolve:evolve:Delta E} Oxs_UniformExchange::Energy {Oxs_UniformExchange::Max Spin Ang} {Oxs_UniformExchange::Stage Max Spin Ang} {Oxs_UniformExchange::Run Max Spin Ang} Oxs_TimeDriver::Iteration {Oxs_TimeDriver::Stage iteration} Oxs_TimeDriver::Stage Oxs_TimeDriver::mx   Oxs_TimeDriver::my   Oxs_TimeDriver::mz   {Oxs_TimeDriver::Last time step} {Oxs_TimeDriver::Simulation time}
# Units:                       J                                            {}                                        deg/ns                                 J/s                                  J                                J                              deg                                    deg                                      deg                              {}                            {}                          {}                   {}                   {}                   {}                          s                                 s                
                       9.4243650037194058e-18                          1                                           38998.295556195095                  -2.2028396424233077e-05                 0                                9.4243650037194058e-18             23.832877308341594                     23.832877308341594                       23.832877308341594               0                             0                           0                     0.79403137612560648  0.53451889903926741  0.26954572146864975        0                                0                         
                       9.4190504320643339e-18                          7                                           38986.030523567795                  -2.2014496345042262e-05                -5.3145716550717617e-21              9.4190504320643339e-18             23.825750744347534                     23.832877308341594                       23.832877308341594               1                             1                           0                     0.79403330423924967  0.53452013228062489  0.26954641655611689        2.4360038982500795e-16              2.4360038982500795e-16       
                       9.397825855685577e-18                          13                                          38936.996100617129                  -2.1958987960726241e-05                -2.1224576378756878e-20              9.397825855685577e-18             23.797260411627565                     23.832877308341594                       23.832877308341594               2                             2                           0                     0.79404100642851072  0.53452505756298085  0.26954919209300809        9.7440155930003182e-16              1.2180019491250398e-15       
                       9.3134644190692022e-18                          19                                          38741.270136392639                  -2.1738418509314891e-05                -8.4361436616375815e-20              9.3134644190692022e-18             23.683553755374717                     23.832877308341594                       23.832877308341594               3                             3                           0                     0.79407165162737903  0.5345446363785884   0.26956021747995107        3.8976062372001273e-15              5.115608186325167e-15       
                       8.9844511285193754e-18                          25                                          37964.978824032449                  -2.0879134611862399e-05                -3.2901329054982696e-19              8.9844511285193754e-18             23.232795536213757                     23.832877308341594                       23.832877308341594               4                             4                           0                     0.79419165879855125  0.53462103350752932  0.2696031065663444         1.5590424948800509e-14              2.0706033135125675e-14       
                       7.7937875531326416e-18                          31                                          34966.93043684549                   -1.7783733431063196e-05                -1.1906635753867334e-18              7.7937875531326416e-18             21.494409579924724                     23.832877308341594                       23.832877308341594               5                             5                           0                     0.79463312283148169  0.53489829762805552  0.26975624433089412        6.2361699795202036e-14              8.3067732930327708e-14       
                       5.4773015414161637e-18                          37                                          28049.296856352074                  -1.1850010666784616e-05                -2.3164860117164779e-18              5.4773015414161637e-18             17.482650648630745                     23.832877308341594                       23.832877308341594               6                             6                           0                     0.79553323988048308  0.53544730265525142  0.27003455840222235        1.6055728963819971e-13              2.4362502256852743e-13       
                       3.7664724476368093e-18                          43                                          21578.054766332625                  -7.5914914723770835e-06                -1.7108290937793538e-18              3.7664724476368093e-18             15.492572752861305                     23.832877308341594                       23.832877308341594               7                             7                           0                     0.79624737591124473  0.53588075826365078  0.27019972260670988        1.8197985899063281e-13              4.2560488155916023e-13       
                       2.621794795081263e-18                          49                                          16212.857559780288                  -4.8504396330080581e-06                -1.1446776525555465e-18              2.621794795081263e-18             13.663333013255951                     23.832877308341594                       23.832877308341594               8                             8                           0                     0.79675606625328765  0.53621674920197782  0.2702662328927718         1.9117735822437068e-13              6.1678223978353094e-13       
                       1.8523863449624383e-18                          55                                          12828.068263707053                  -3.0966100508511541e-06                -7.6940845011882487e-19              1.8523863449624383e-18             11.788630277434697                     23.832877308341594                       23.832877308341594               9                             9                           0                     0.79710927834952316  0.53650164311541848  0.27027619866054969        2.0209395379586058e-13              8.1887619357939144e-13       
                       1.3309893468209493e-18                          61                                          10971.769447826193                  -1.9794159923057095e-06                -5.2139699814148896e-19              1.3309893468209493e-18             9.9242461493461409                     23.832877308341594                       23.832877308341594               10                            10                          0                     0.79734446919232871  0.5367591293963565   0.27026525975809995        2.1509257755413581e-13              1.0339687711335274e-12       
# Table End
