# ODT 1.0
# Table Start
# Title: mmArchive Data Table, Wed Jun 16 19:00:21 EDT 2010
# Columns: {Oxs_RungeKuttaEvolve:evolve:Total energy} {Oxs_RungeKuttaEvolve:evolve:Energy calc count} {Oxs_RungeKuttaEvolve:evolve:Max dm/dt} Oxs_RungeKuttaEvolve:evolve:dE/dt {Oxs_RungeKuttaEvolve:evolve:Delta E} Oxs_UniformExchange::Energy {Oxs_UniformExchange::Max Spin Ang} {Oxs_UniformExchange::Stage Max Spin Ang} {Oxs_UniformExchange::Run Max Spin Ang} Oxs_TimeDriver::Iteration {Oxs_TimeDriver::Stage iteration} Oxs_TimeDriver::Stage Oxs_TimeDriver::mx   Oxs_TimeDriver::my   Oxs_TimeDriver::mz   {Oxs_TimeDriver::Last time step} {Oxs_TimeDriver::Simulation time}
# Units:                       J                                            {}                                        deg/ns                                 J/s                                  J                                J                              deg                                    deg                                      deg                              {}                            {}                          {}                   {}                   {}                   {}                          s                                 s                
                       9.9331989412689978e-17                          1                                           253193.74004931375                  -0.00048973228021136203                 0                                9.9331989412689978e-17             24.949551921938447                     24.949551921938447                       24.949551921938447               0                             0                           0                     0.79550929367512391  0.53375555683361497  0.26788559365217446        0                                0                         
                       9.9315099246858186e-17                          7                                           253150.50451810606                  -0.00048958756383408358                -1.6890165831794712e-20              9.9315099246858186e-17             24.948449552388492                     24.949551921938447                       24.949551921938447               1                             1                           0                     0.79550971324313613  0.53375585181423257  0.2678856943633135         3.7520674871936856e-17              3.7520674871936856e-17       
                       9.9247593797630102e-17                          13                                          252977.615433236                    -0.00048900940397023529                -6.7505449228082583e-20              9.9247593797630102e-17             24.944040137782576                     24.949551921938447                       24.949551921938447               2                             2                           0                     0.79551139054242903  0.53375703124170071  0.26788609702859778        1.5008269948774742e-16              1.8760337435968428e-16       
                       9.89784522261533e-17                          19                                          252286.90852937146                  -0.00048670800497332929                -2.6914157147680262e-19              9.89784522261533e-17             24.926403512735845                     24.949551921938447                       24.949551921938447               3                             3                           0                     0.79551808421367465  0.53376174104251284  0.2678877048374248         6.003307979509897e-16              7.8793417231067398e-16       
                       9.7915767273220381e-17                          25                                          249537.72109407865                  -0.00047767910933810162                -1.0626849529329141e-18              9.7915767273220381e-17             24.855874559646676                     24.949551921938447                       24.949551921938447               4                             4                           0                     0.79554461291098644  0.53378045439393762  0.26789409144280657        2.4013231918039588e-15              3.1892573641146328e-15       
                       9.3874807860715728e-17                          31                                          238761.93498646686                  -0.00044420025836631295                -4.0409594125046591e-18              9.3874807860715728e-17             24.574103597173742                     24.949551921938447                       24.949551921938447               5                             5                           0                     0.7956469431855121   0.53385333632326615  0.26791898336682585        9.6052927672158352e-15              1.2794550131330469e-14       
                       8.7672167811481908e-17                          37                                          221233.57438542956                  -0.0003954894256251302                -6.2026400492338161e-18              8.7672167811481908e-17             24.095861324969761                     24.949551921938447                       24.949551921938447               6                             6                           0                     0.79580850900893974  0.53397055112574443  0.26795938689231491        1.6363766487293972e-14              2.9158316618624437e-14       
                       8.1703392021269819e-17                          43                                          203277.99324458779                  -0.00035171116818898124                -5.9687757902120853e-18              8.1703392021269819e-17             23.576669521859813                     24.949551921938447                       24.949551921938447               7                             7                           0                     0.79596910736425097  0.53408930920587394  0.26800131963635865        1.7890970990021344e-14              4.7049287608645784e-14       
                       7.6212750138351764e-17                          49                                          185911.2147845501                   -0.00031410150663654913                -5.4906418829180589e-18              7.6212750138351764e-17             23.041573363255335                     24.949551921938447                       24.949551921938447               8                             8                           0                     0.79612121481935783  0.53420329064741123  0.26804297795340032        1.8627879278369606e-14              6.5677166887015393e-14       
                       7.1129224573144246e-17                          55                                          169231.8704268983                   -0.00028149057082993786                -5.0835255652075196e-18              7.1129224573144246e-17             22.492027113391867                     24.949551921938447                       24.949551921938447               9                             9                           0                     0.7962657040682467   0.5343123002653194   0.26808438331570272        1.9389141903144507e-14              8.5066308790159894e-14       
                       6.6379657442835977e-17                          61                                          153265.8858961371                   -0.00025285309103418603                -4.7495671303082733e-18              6.6379657442835977e-17             23.654166946498929                     24.949551921938447                       24.949551921938447               10                            10                          0                     0.79640381896165613  0.53441662844833382  0.26812551334804446        2.0249791007893836e-14              1.0531609979805374e-13       
# Table End
