# ODT 1.0
# Table Start
# Title: mmArchive Data Table, Wed Jun 16 19:00:22 EDT 2010
# Columns: {Oxs_RungeKuttaEvolve:evolve:Total energy} {Oxs_RungeKuttaEvolve:evolve:Energy calc count} {Oxs_RungeKuttaEvolve:evolve:Max dm/dt} Oxs_RungeKuttaEvolve:evolve:dE/dt {Oxs_RungeKuttaEvolve:evolve:Delta E} Oxs_UniformExchange::Energy {Oxs_UniformExchange::Max Spin Ang} {Oxs_UniformExchange::Stage Max Spin Ang} {Oxs_UniformExchange::Run Max Spin Ang} Oxs_TimeDriver::Iteration {Oxs_TimeDriver::Stage iteration} Oxs_TimeDriver::Stage Oxs_TimeDriver::mx   Oxs_TimeDriver::my   Oxs_TimeDriver::mz   {Oxs_TimeDriver::Last time step} {Oxs_TimeDriver::Simulation time}
# Units:                       J                                            {}                                        deg/ns                                 J/s                                  J                                J                              deg                                    deg                                      deg                              {}                            {}                          {}                   {}                   {}                   {}                          s                                 s                
                       9.4243650037193658e-18                          1                                           38998.295556195095                  -2.2028396424233077e-05                 0                                9.4243650037193658e-18             23.832877308341594                     23.832877308341594                       23.832877308341594               0                             0                           0                     0.79403137612560648  0.53451889903926741  0.26954572146864975        0                                0                         
                       9.4190504320642939e-18                          7                                           38986.030523567795                  -2.2014496345042266e-05                -5.3145716550717594e-21              9.4190504320642939e-18             23.825750744347534                     23.832877308341594                       23.832877308341594               1                             1                           0                     0.79403330423924967  0.53452013228062489  0.26954641655611689        2.4360038982500791e-16              2.4360038982500791e-16       
                       9.397825855685537e-18                          13                                          38936.996100617136                  -2.1958987960726245e-05                -2.1224576378756884e-20              9.397825855685537e-18             23.797260411627565                     23.832877308341594                       23.832877308341594               2                             2                           0                     0.79404100642851072  0.53452505756298085  0.26954919209300809        9.7440155930003162e-16              1.2180019491250396e-15       
                       9.3134644190691621e-18                          19                                          38741.270136392639                  -2.1738418509314891e-05                -8.4361436616375827e-20              9.3134644190691621e-18             23.683553755374717                     23.832877308341594                       23.832877308341594               3                             3                           0                     0.79407165162737903  0.5345446363785884   0.26956021747995107        3.8976062372001265e-15              5.1156081863251663e-15       
                       8.9844511285193354e-18                          25                                          37964.978824032449                  -2.0879134611862399e-05                -3.2901329054982696e-19              8.9844511285193354e-18             23.232795536213757                     23.832877308341594                       23.832877308341594               4                             4                           0                     0.79419165879855125  0.53462103350752932  0.2696031065663444         1.5590424948800506e-14              2.0706033135125675e-14       
                       7.7937875531326016e-18                          31                                          34966.930436845498                  -1.7783733431063199e-05                -1.1906635753867334e-18              7.7937875531326016e-18             21.494409579924724                     23.832877308341594                       23.832877308341594               5                             5                           0                     0.79463312283148169  0.53489829762805552  0.26975624433089412        6.2361699795202024e-14              8.3067732930327708e-14       
                       5.477301541416089e-18                          37                                          28049.296856351957                  -1.1850010666784532e-05                -2.3164860117165125e-18              5.477301541416089e-18             17.482650648630678                     23.832877308341594                       23.832877308341594               6                             6                           0                     0.79553323988048308  0.53544730265525142  0.27003455840222235        1.6055728963820264e-13              2.4362502256853036e-13       
                       3.7664724476367454e-18                          43                                          21578.054766332523                  -7.5914914723770259e-06                -1.7108290937793436e-18              3.7664724476367454e-18             15.492572752861273                     23.832877308341594                       23.832877308341594               7                             7                           0                     0.79624737591124473  0.53588075826365078  0.27019972260670988        1.8197985899063306e-13              4.2560488155916341e-13       
                       2.6217947950812064e-18                          49                                          16212.857559780206                  -4.8504396330080208e-06                -1.1446776525555386e-18              2.6217947950812064e-18             13.663333013255919                     23.832877308341594                       23.832877308341594               8                             8                           0                     0.79675606625328765  0.53621674920197782  0.2702662328927718         1.9117735822437081e-13              6.1678223978353417e-13       
                       1.8523863449623871e-18                          55                                          12828.068263707002                  -3.0966100508511313e-06                -7.6940845011881948e-19              1.8523863449623871e-18             11.788630277434665                     23.832877308341594                       23.832877308341594               9                             9                           0                     0.79710927834952316  0.53650164311541848  0.27027619866054969        2.0209395379586073e-13              8.1887619357939497e-13       
                       1.3309893468209011e-18                          61                                          10971.769447826164                  -1.9794159923056942e-06                -5.2139699814148578e-19              1.3309893468209011e-18             9.9242461493461231                     23.832877308341594                       23.832877308341594               10                            10                          0                     0.79734446919232871  0.5367591293963565   0.27026525975809995        2.1509257755413617e-13              1.033968771133531e-12       
# Table End
