# ODT 1.0
# Table Start
# Title: mmArchive Data Table, Wed Jun 16 19:00:18 EDT 2010
# Columns: {Oxs_RungeKuttaEvolve:evolve:Total energy} {Oxs_RungeKuttaEvolve:evolve:Energy calc count} {Oxs_RungeKuttaEvolve:evolve:Max dm/dt} Oxs_RungeKuttaEvolve:evolve:dE/dt {Oxs_RungeKuttaEvolve:evolve:Delta E} Oxs_UniformExchange::Energy {Oxs_UniformExchange::Max Spin Ang} {Oxs_UniformExchange::Stage Max Spin Ang} {Oxs_UniformExchange::Run Max Spin Ang} Oxs_TimeDriver::Iteration {Oxs_TimeDriver::Stage iteration} Oxs_TimeDriver::Stage Oxs_TimeDriver::mx   Oxs_TimeDriver::my   Oxs_TimeDriver::mz   {Oxs_TimeDriver::Last time step} {Oxs_TimeDriver::Simulation time}
# Units:                       J                                            {}                                        deg/ns                                 J/s                                  J                                J                              deg                                    deg                                      deg                              {}                            {}                          {}                   {}                   {}                   {}                          s                                 s                
                       1.7869472608025078e-16                          1                                           245365.92302964084                  -0.00077717354621825805                 0                                1.7869472608025078e-16             24.266980752994527                     24.266980752994527                       24.266980752994527               0                             0                           0                     0.79517286415727995  0.53416496219096632  0.26796605751117142        0                                0                         
                       1.786668439494148e-16                          7                                           245322.54145215312                  -0.00077692694741332395                -2.7882130835992554e-20              1.786668439494148e-16             24.266106050474786                     24.266980752994527                       24.266980752994527               1                             1                           0                     0.79517323421913466  0.53416520873370488  0.26796620048823711        3.8717682890514407e-17              3.8717682890514407e-17       
                       1.7855540896134878e-16                          13                                          245149.07148519729                  -0.00077594191068886323                -1.1143498806600702e-19              1.7855540896134878e-16             24.262607319607618                     24.266980752994527                       24.266980752994527               2                             2                           0                     0.79517471385671845  0.53416619438125656  0.26796677201040303        1.5487073156205763e-16              1.9358841445257204e-16       
                       1.7811115968562233e-16                          19                                          244456.09386063373                  -0.00077202339552864753                -4.4424927572646343e-19              1.7811115968562233e-16             24.248613665225914                     24.266980752994527                       24.266980752994527               3                             3                           0                     0.7951806226667486   0.53417012862853341  0.26796905193056675        6.1948292624823051e-16              8.130713407008025e-16       
                       1.7635764198168476e-16                          25                                          241698.6657692884                   -0.00075668887371838154                -1.7535177039375656e-18              1.7635764198168476e-16             24.192659461664096                     24.266980752994527                       24.266980752994527               4                             4                           0                     0.79520410313797263  0.5341857341263756   0.26797807350412095        2.477931704992922e-15              3.2910030456937246e-15       
                       1.696967883746083e-16                          31                                          230903.20126518246                  -0.00070038725833621496                -6.6608536070764634e-18              1.696967883746083e-16             23.969176193182552                     24.266980752994527                       24.266980752994527               5                             5                           0                     0.79529561388402159  0.53424617457882695  0.26801263011442583        9.9117268199716882e-15              1.3202729865665412e-14       
                       1.5958594063927233e-16                          37                                          213563.75037333168                  -0.00062090113600062025                -1.0110847735335967e-17              1.5958594063927233e-16             23.593645892596296                     24.266980752994527                       24.266980752994527               6                             6                           0                     0.79544163797937006  0.534341793108559    0.26806571134345769        1.6711238981242014e-14              2.9913968846907424e-14       
                       1.49855217006749e-16                          43                                          195863.03100774836                  -0.00055120515872600275                -9.7307236325233306e-18              1.49855217006749e-16             23.185284215456409                     24.266980752994527                       24.266980752994527               7                             7                           0                     0.79559022000192847  0.53443889870558903  0.26811715674928899        1.8258370174386042e-14              4.817233902129347e-14       
                       1.4087208602490806e-16                          49                                          178762.83819055694                  -0.00049260130931763006                -8.9831309818409426e-18              1.4087208602490806e-16             22.761620802042486                     24.266980752994527                       24.266980752994527               8                             8                           0                     0.79573405495277039  0.53453367603202451  0.26816478483062378        1.9045936879831159e-14              6.7218275901124626e-14       
                       1.3252149568022737e-16                          55                                          162364.56339730366                  -0.00044276404303292001                -8.3505903446806696e-18              1.3252149568022737e-16             22.322538567228133                     24.266980752994527                       24.266980752994527               9                             9                           0                     0.79587299899389286  0.53462674969918478  0.26820927760770558        1.986019917938085e-14              8.7078475080505473e-14       
                       1.2468421089460166e-16                          61                                          146699.55535381613                  -0.00039971755341801363                -7.8372847856257104e-18              1.2468421089460166e-16             23.393641375768858                     24.266980752994527                       24.266980752994527               10                            10                          0                     0.79600747161469187  0.53471878504634207  0.2682515646861155         2.0774892746519944e-14              1.0785336782702542e-13       
# Table End
