# ODT 1.0
# Table Start
# Title: mmArchive Data Table, Wed Jun 16 19:00:17 EDT 2010
# Columns: {Oxs_RungeKuttaEvolve:evolve:Total energy} {Oxs_RungeKuttaEvolve:evolve:Energy calc count} {Oxs_RungeKuttaEvolve:evolve:Max dm/dt} Oxs_RungeKuttaEvolve:evolve:dE/dt {Oxs_RungeKuttaEvolve:evolve:Delta E} Oxs_UniformExchange::Energy {Oxs_UniformExchange::Max Spin Ang} {Oxs_UniformExchange::Stage Max Spin Ang} {Oxs_UniformExchange::Run Max Spin Ang} Oxs_TimeDriver::Iteration {Oxs_TimeDriver::Stage iteration} Oxs_TimeDriver::Stage Oxs_TimeDriver::mx   Oxs_TimeDriver::my   Oxs_TimeDriver::mz   {Oxs_TimeDriver::Last time step} {Oxs_TimeDriver::Simulation time}
# Units:                       J                                            {}                                        deg/ns                                 J/s                                  J                                J                              deg                                    deg                                      deg                              {}                            {}                          {}                   {}                   {}                   {}                          s                                 s                
                       1.3047398240629279e-17                          1                                           171379.24803251107                  -8.6474665062808331e-05                 0                                1.3047398240629279e-17             23.832877308341594                     23.832877308341594                       23.832877308341594               0                             0                           0                     0.79403137612560648  0.53451889903926741  0.26954572146864975        0                                0                         
                       1.3042987159631e-17                          7                                           171279.31774722243                  -8.6407944585205316e-05                -4.4110809982771409e-21              1.3042987159631e-17             23.831120330646005                     23.832877308341594                       23.832877308341594               1                             1                           0                     0.79403202041334953  0.53451921405884362  0.26954599017179032        5.5432615728351347e-17              5.5432615728351347e-17       
                       1.3025380547328993e-17                          13                                          170880.11004769281                  -8.6141788357041961e-05                -1.7606612302008348e-20              1.3025380547328993e-17             23.824093387620952                     23.832877308341594                       23.832877308341594               2                             2                           0                     0.79403459600785253  0.53452047201146091  0.2695470621227678         2.2173046291340539e-16              2.7716307864175674e-16       
                       1.2955552536205921e-17                          19                                          169291.46408616423                  -8.508867852005802e-05                -6.9828011123071555e-20              1.2955552536205921e-17             23.796001098186512                     23.832877308341594                       23.832877308341594               3                             3                           0                     0.7940448735727893   0.53452547020334007  0.26955130421141821        8.8692185165362156e-16              1.1640849302953784e-15       
                       1.2685506269972345e-17                          25                                          163065.9262522902                   -8.1054496572460099e-05                -2.7004626623357593e-19              1.2685506269972345e-17             23.683879569686219                     23.832877308341594                       23.832877308341594               4                             4                           0                     0.79408559230130205  0.53454494979911904  0.2695675458968172         3.5476874066144862e-15              4.7117723369098646e-15       
                       1.1786858110953151e-17                          31                                          146839.22823361977                  -6.8133392141787432e-05                -8.9864815901919376e-19              1.1786858110953151e-17             23.265584036286501                     23.832877308341594                       23.832877308341594               5                             5                           0                     0.7942334202750585   0.53461215403656936  0.26961855430097154        1.3347622870816421e-14              1.8059395207726286e-14       
                       1.086936190969045e-17                          37                                          135147.79919059706                  -5.5944680964573268e-05                -9.1749620126270035e-19              1.086936190969045e-17             22.750228648284374                     23.832877308341594                       23.832877308341594               6                             6                           0                     0.79440703684275449  0.53468735147980651  0.26966161618170115        1.6695581206216695e-14              3.4754976413942981e-14       
                       1.007703786511467e-17                          43                                          123581.8874507779                   -4.648687617153142e-05                -7.9232404457577976e-19              1.007703786511467e-17             22.214408230449415                     23.832877308341594                       23.832877308341594               7                             7                           0                     0.79457758359970232  0.53476252848799777  0.26968575336388872        1.7665381314702149e-14              5.2420357728645131e-14       
                       9.3848671666025367e-18                          49                                          112341.36390708217                  -3.9219240643113677e-05                -6.9217069851213378e-19              9.3848671666025367e-18             21.664781872251833                     23.832877308341594                       23.832877308341594               8                             8                           0                     0.79474152938706466  0.53484150623176163  0.26969248596296597        1.846183275546498e-14              7.0882190484110111e-14       
                       8.7633746521797813e-18                          55                                          101449.48939712816                  -3.3572374269076332e-05                -6.2149251442275571e-19              8.7633746521797813e-18             21.100294593955553                     23.832877308341594                       23.832877308341594               9                             9                           0                     0.7948977424215381   0.5349280580411877   0.2696850828390675         1.9339877746479211e-14              9.0222068230589318e-14       
                       8.1918146021460823e-18                          61                                          90924.562968136088                  -2.9115464723378271e-05                -5.7156005003369954e-19              8.1918146021460823e-18             20.519423838377925                     23.832877308341594                       23.832877308341594               10                            10                          0                     0.79504521859888011  0.53502464466350752  0.26966738413652908        2.032445704399059e-14              1.1054652527457991e-13       
# Table End
