# ODT 1.0
# Table Start
# Title: mmArchive Data Table, Wed Jun 16 19:00:33 EDT 2010
# Columns: {Oxs_RungeKuttaEvolve:evolve:Total energy} {Oxs_RungeKuttaEvolve:evolve:Energy calc count} {Oxs_RungeKuttaEvolve:evolve:Max dm/dt} Oxs_RungeKuttaEvolve:evolve:dE/dt {Oxs_RungeKuttaEvolve:evolve:Delta E} Oxs_UniformExchange::Energy {Oxs_UniformExchange::Max Spin Ang} {Oxs_UniformExchange::Stage Max Spin Ang} {Oxs_UniformExchange::Run Max Spin Ang} Oxs_TimeDriver::Iteration {Oxs_TimeDriver::Stage iteration} Oxs_TimeDriver::Stage Oxs_TimeDriver::mx   Oxs_TimeDriver::my   Oxs_TimeDriver::mz   {Oxs_TimeDriver::Last time step} {Oxs_TimeDriver::Simulation time}
# Units:                       J                                            {}                                        deg/ns                                 J/s                                  J                                J                              deg                                    deg                                      deg                              {}                            {}                          {}                   {}                   {}                   {}                          s                                 s                
                       4.8175320562508652e-18                          1                                           21121.474248163107                  -5.3974555895028184e-06                 0                                4.8175320562508652e-18             23.832877308341594                     23.832877308341594                       23.832877308341594               0                             0                           0                     0.79403137612560648  0.53451889903926741  0.26954572146864975        0                                0                         
                       4.8151050898557497e-18                          7                                           21114.239605600127                  -5.3943569897768327e-06                -2.426966395115487e-21              4.8151050898557497e-18             23.827763753978857                     23.832877308341594                       23.832877308341594               1                             1                           0                     0.79403315976050859  0.53452012050069775  0.26954633153256874        4.497792099349408e-16              4.497792099349408e-16       
                       4.8054111480522945e-18                          13                                          21085.322254596675                  -5.3819819737471627e-06                -9.6939418034549996e-21              4.8054111480522945e-18             23.807315827283073                     23.832877308341594                       23.832877308341594               2                             2                           0                     0.79404028538910554  0.53452500020778559  0.26954876879027911        1.7991168397397632e-15              2.248896049674704e-15       
                       4.7668571878910228e-18                          19                                          20969.992138458525                  -5.3327906145679297e-06                -3.8553960161271326e-20              4.7668571878910228e-18             23.725625091527132                     23.832877308341594                       23.832877308341594               3                             3                           0                     0.79406864589396275  0.53454442120604229  0.26955847003967615        7.1964673589590527e-15              9.4453634086337563e-15       
                       4.6161288241131537e-18                          25                                          20514.085393318801                  -5.1408747721647146e-06                -1.5072836377786904e-19              4.6161288241131537e-18             23.400497762840612                     23.832877308341594                       23.832877308341594               4                             4                           0                     0.79417985155559645  0.53462056443567707  0.26959652228473191        2.8785869435836211e-14              3.8231232844469967e-14       
                       4.0652936338901385e-18                          31                                          18775.936631832788                  -4.4453747739371061e-06                -5.5083519022301558e-19              4.0652936338901385e-18             22.127358408683239                     23.832877308341594                       23.832877308341594               5                             5                           0                     0.79459106781105204  0.53490197660904659  0.26973740162200066        1.1514347774334484e-13              1.5337471058781482e-13       
                       2.7933645605589625e-18                          37                                          14246.043192659507                  -2.8835883111020174e-06                -1.2719290733311763e-18              2.7933645605589625e-18             18.527113727324508                     23.832877308341594                       23.832877308341594               6                             6                           0                     0.79557724514249806  0.53557544017828174  0.27007627725805494        3.5305811533921378e-13              5.0643282592702855e-13       
                       1.8593870555033836e-18                          43                                          10297.806772540358                  -1.7936004025615268e-06                -9.3397750505557882e-19              1.8593870555033836e-18             15.164771773426667                     23.832877308341594                       23.832877308341594               7                             7                           0                     0.79635003716702679  0.53610098635089609  0.27034245329215301        4.0772590463530667e-13              9.1415873056233532e-13       
                       1.2407786232698033e-18                          49                                          7773.6130585718956                  -1.1136635355845995e-06                -6.1860843223358024e-19              1.2407786232698033e-18             12.738489199398703                     23.832877308341594                       23.832877308341594               8                             8                           0                     0.79690034837124535  0.53647363401431969  0.27053179889003948        4.3461989491272045e-13              1.3487786254750558e-12       
                       8.279427983760052e-19                          55                                          6543.6076562738599                  -6.8859268932456155e-07                -4.1283582489379814e-19              8.279427983760052e-19             10.851794928640611                     23.832877308341594                       23.832877308341594               9                             9                           0                     0.79729658482439347  0.53674116909377323  0.27066769504647586        4.6812947766540822e-13              1.816908103140464e-12       
                       5.5092895207244783e-19                          61                                          5629.1664213167805                  -4.2250894218491303e-07                -2.7701384630355742e-19              5.5092895207244783e-19             9.1331071146394436                     23.832877308341594                       23.832877308341594               10                            10                          0                     0.79758448543844573  0.53693532757454387  0.27076613024990198        5.0990567606120691e-13              2.3268137792016708e-12       
# Table End
