# ODT 1.0
# Table Start
# Title: mmArchive Data Table, Wed Jun 16 19:00:23 EDT 2010
# Columns: {Oxs_RungeKuttaEvolve:evolve:Total energy} {Oxs_RungeKuttaEvolve:evolve:Energy calc count} {Oxs_RungeKuttaEvolve:evolve:Max dm/dt} Oxs_RungeKuttaEvolve:evolve:dE/dt {Oxs_RungeKuttaEvolve:evolve:Delta E} Oxs_UniformExchange::Energy {Oxs_UniformExchange::Max Spin Ang} {Oxs_UniformExchange::Stage Max Spin Ang} {Oxs_UniformExchange::Run Max Spin Ang} Oxs_TimeDriver::Iteration {Oxs_TimeDriver::Stage iteration} Oxs_TimeDriver::Stage Oxs_TimeDriver::mx   Oxs_TimeDriver::my   Oxs_TimeDriver::mz   {Oxs_TimeDriver::Last time step} {Oxs_TimeDriver::Simulation time}
# Units:                       J                                            {}                                        deg/ns                                 J/s                                  J                                J                              deg                                    deg                                      deg                              {}                            {}                          {}                   {}                   {}                   {}                          s                                 s                
                       1.5189414904607992e-16                          1                                           44728.669994467033                  -0.00037751537367727899                 0                                1.5189414904607992e-16             24.266980752994527                     24.266980752994527                       24.266980752994527               0                             0                           0                     0.79517286415727995  0.53416496219096632  0.26796605751117142        0                                0                         
                       1.5181516654019392e-16                          7                                           44714.280274567274                  -0.00037729395208618973                -7.8982505886004221e-20              1.5181516654019392e-16             24.262182536820937                     24.266980752994527                       24.266980752994527               1                             1                           0                     0.79517458265014362  0.53416616473908096  0.26796666613927395        2.1239173892662484e-16              2.1239173892662484e-16       
                       1.5149970238397037e-16                          13                                          44656.754427996137                  -0.00037640963575748373                -3.1546415622355862e-19              1.5149970238397037e-16             24.242992061711611                     24.266980752994527                       24.266980752994527               2                             2                           0                     0.79518144747135988  0.53417096860954916  0.26796909758420923        8.4956695570649936e-16              1.0619586946331241e-15       
                       1.5024526731843049e-16                          19                                          44427.179933828622                  -0.00037289419499554686                -1.254435065539866e-18              1.5024526731843049e-16             24.166268674368663                     24.266980752994527                       24.266980752994527               3                             3                           0                     0.79520876095145143  0.53419008334521589  0.26797877447846474        3.3982678228259975e-15              4.4602265174591218e-15       
                       1.4534423098209028e-16                          25                                          43517.366115217133                  -0.00035917555828400636                -4.9010363363402167e-18              1.4534423098209028e-16             23.860009142923698                     24.266980752994527                       24.266980752994527               4                             4                           0                     0.79531571984536742  0.53426495598716661  0.26801671215106859        1.359307129130399e-14              1.8053297808763111e-14       
                       1.2748343097168911e-16                          31                                          40014.915354849152                  -0.00030942216812485882                -1.7860800010401159e-17              1.2748343097168911e-16             22.646229920883194                     24.266980752994527                       24.266980752994527               5                             5                           0                     0.79570913735551896  0.53454062732253527  0.26815689005047005        5.4372285165215959e-14              7.242558297397907e-14       
                       9.1370539145302928e-17                          37                                          31838.208311786624                  -0.00021037239291046643                -3.6112891826386182e-17              9.1370539145302928e-17             19.557828110095553                     24.266980752994527                       24.266980752994527               6                             6                           0                     0.79652705043720762  0.5351151385136107   0.26845214590692701        1.4326114808867037e-13              2.1568673106264942e-13       
                       6.3915152534979322e-17                          43                                          24720.312735019932                  -0.00013725516883474469                -2.7455386610323607e-17              6.3915152534979322e-17             17.939439235642745                     24.266980752994527                       24.266980752994527               7                             7                           0                     0.79717981744135036  0.53557505595709465  0.26869253442690394        1.6388990937906628e-13              3.7957664044171569e-13       
                       4.5121040176674383e-17                          49                                          20016.969332982699                  -8.9116941029439924e-05                -1.8794112358304944e-17              4.5121040176674383e-17             16.742982519263087                     24.266980752994527                       24.266980752994527               8                             8                           0                     0.79765374539106315  0.53591015229852179  0.26887033279175315        1.7299878256776407e-13              5.5257542300947976e-13       
                       3.2256376224811017e-17                          55                                          16137.965400152583                  -5.7719547074013241e-05                -1.2864663951863365e-17              3.2256376224811017e-17             15.300974415481942                     24.266980752994527                       24.266980752994527               9                             9                           0                     0.79800057847968908  0.53615716883066089  0.2690023260269977         1.8326368254414931e-13              7.3583910555362905e-13       
                       2.3403183080643352e-17                          61                                          14539.215693728136                  -3.7345917589528051e-05                -8.8531931441676634e-18              2.3403183080643352e-17             13.685046242274035                     24.266980752994527                       24.266980752994527               10                            10                          0                     0.79825738992473216  0.53634319876783321  0.26910117407111095        1.9540973725662189e-13              9.3124884281025097e-13       
# Table End
