# ODT 1.0
# Table Start
# Title: mmArchive Data Table, Wed Jun 16 19:00:25 EDT 2010
# Columns: {Oxs_RungeKuttaEvolve:evolve:Total energy} {Oxs_RungeKuttaEvolve:evolve:Energy calc count} {Oxs_RungeKuttaEvolve:evolve:Max dm/dt} Oxs_RungeKuttaEvolve:evolve:dE/dt {Oxs_RungeKuttaEvolve:evolve:Delta E} Oxs_UniformExchange::Energy {Oxs_UniformExchange::Max Spin Ang} {Oxs_UniformExchange::Stage Max Spin Ang} {Oxs_UniformExchange::Run Max Spin Ang} Oxs_TimeDriver::Iteration {Oxs_TimeDriver::Stage iteration} Oxs_TimeDriver::Stage Oxs_TimeDriver::mx   Oxs_TimeDriver::my   Oxs_TimeDriver::mz   {Oxs_TimeDriver::Last time step} {Oxs_TimeDriver::Simulation time}
# Units:                       J                                            {}                                        deg/ns                                 J/s                                  J                                J                              deg                                    deg                                      deg                              {}                            {}                          {}                   {}                   {}                   {}                          s                                 s                
                       6.5043075049376647e-17                          1                                           44728.669994467033                  -0.00015975667771938391                 0                                6.5043075049376647e-17             24.949551921938447                     24.949551921938447                       24.949551921938447               0                             0                           0                     0.79542215121752646  0.53393596753850359  0.26778137951727182        0                                0                         
                       6.5009756064150635e-17                          7                                           44714.280274567311                  -0.00015966389415544049                -3.3318985226011488e-20              6.5009756064150635e-17             24.944453698388159                     24.949551921938447                       24.949551921938447               1                             1                           0                     0.79542383806361572  0.53393714290493155  0.26778199795483926        2.1239173892662484e-16              2.1239173892662484e-16       
                       6.4876674996978035e-17                          13                                          44656.754428000575                  -0.00015929332989462732                -1.3308106717259461e-19              6.4876674996978035e-17             24.924064632123809                     24.949551921938447                       24.949551921938447               2                             2                           0                     0.79543057658348071  0.53394183814121099  0.26778446874459916        8.4956695570649936e-16              1.0619586946331241e-15       
                       6.4347455276946892e-17                          19                                          44427.179934140921                  -0.00015782015300353159                -5.2921972003114574e-19              6.4347455276946892e-17             24.842569851041858                     24.949551921938447                       24.949551921938447               3                             3                           0                     0.7954573894062118   0.53396051981474868  0.26779430471656557        3.3982678228259975e-15              4.4602265174591218e-15       
                       6.2279400880772773e-17                          25                                          43517.366131646835                  -0.00015207021528783069                -2.0680543961741171e-18              6.2279400880772773e-17             24.517589518636409                     24.949551921938447                       24.949551921938447               4                             4                           0                     0.79556241692897345  0.53403368340890267  0.26783290506171298        1.359307129130399e-14              1.8053297808763111e-14       
                       5.4736857843099787e-17                          31                                          40014.915400255588                  -0.00013120199611696667                -7.5425430376729834e-18              5.4736857843099787e-17             23.234581126528379                     24.949551921938447                       24.949551921938447               5                             5                           0                     0.79594915717858217  0.53430286683748551  0.26797610847915909        5.4372285165215959e-14              7.242558297397907e-14       
                       3.9234167289972693e-17                          37                                          31709.329492400429                  -8.898433919929139e-05                -1.5502690553127094e-17              3.9234167289972693e-17             19.948624978389887                     24.949551921938447                       24.949551921938447               6                             6                           0                     0.79676746743544913  0.53487066596597799  0.26828596492390383        1.4575106627233683e-13              2.181766492463159e-13       
                       2.7435224849115359e-17                          43                                          25386.388760038095                  -5.7810046595661198e-05                -1.1798942440857334e-17              2.7435224849115359e-17             16.496161319998066                     24.949551921938447                       24.949551921938447               7                             7                           0                     0.7974225866269109   0.53532227523751075  0.2685439461337199         1.6758261490659899e-13              3.8575926415291486e-13       
                       1.9386707468679261e-17                          49                                          20256.767691420289                  -3.7380364095540953e-05                -8.0485173804360965e-18              1.9386707468679261e-17             14.943036229628714                     24.949551921938447                       24.949551921938447               8                             8                           0                     0.79789749022090251  0.53564664729626232  0.26874073058416847        1.7712705685680053e-13              5.628863210097154e-13       
                       1.3895497248395978e-17                          55                                          16397.023209736333                  -2.4119012127874298e-05                -5.4912102202832836e-18              1.3895497248395978e-17             13.684785231924282                     24.949551921938447                       24.949551921938447               9                             9                           0                     0.79824473642055704  0.53588061437024781  0.26889437171446756        1.8782860485749495e-13              7.5071492586721037e-13       
                       1.0125976300026486e-17                          61                                          14347.970793185192                  -1.555157073679272e-05                -3.7695209483694917e-18              1.0125976300026486e-17             12.289651571594797                     24.949551921938447                       24.949551921938447               10                            10                          0                     0.79850261225380459  0.53605033178888928  0.26901823674519826        2.0050265449370923e-13              9.5121758036091966e-13       
# Table End
