# ODT 1.0
# Table Start
# Title: mmArchive Data Table, Wed Jun 16 19:00:29 EDT 2010
# Columns: {Oxs_RungeKuttaEvolve:evolve:Total energy} {Oxs_RungeKuttaEvolve:evolve:Energy calc count} {Oxs_RungeKuttaEvolve:evolve:Max dm/dt} Oxs_RungeKuttaEvolve:evolve:dE/dt {Oxs_RungeKuttaEvolve:evolve:Delta E} Oxs_UniformExchange::Energy {Oxs_UniformExchange::Max Spin Ang} {Oxs_UniformExchange::Stage Max Spin Ang} {Oxs_UniformExchange::Run Max Spin Ang} Oxs_TimeDriver::Iteration {Oxs_TimeDriver::Stage iteration} Oxs_TimeDriver::Stage Oxs_TimeDriver::mx   Oxs_TimeDriver::my   Oxs_TimeDriver::mz   {Oxs_TimeDriver::Last time step} {Oxs_TimeDriver::Simulation time}
# Units:                       J                                            {}                                        deg/ns                                 J/s                                  J                                J                              deg                                    deg                                      deg                              {}                            {}                          {}                   {}                   {}                   {}                          s                                 s                
                       3.2075046559789727e-17                          1                                           44727.496450548322                  -7.7664384412975105e-05                 0                                3.2075046559789727e-17             22.995792189961314                     22.995792189961314                       22.995792189961314               0                             0                           0                     0.79466587739961814  0.53469599403646673  0.26851672685364403        0                                0                         
                       3.2058927913520183e-17                          7                                           44713.106153138629                  -7.7619648239290754e-05                -1.6118646269545052e-20              3.2058927913520183e-17             22.989858462354622                     22.995792189961314                       22.995792189961314               1                             1                           0                     0.79466756329162636  0.53469708935430116  0.26851728800289609        2.123973115844613e-16              2.123973115844613e-16       
                       3.1994546916325044e-17                          13                                          44655.57800633907                   -7.7440977867388426e-05                -6.4380997195137478e-20              3.1994546916325044e-17             22.966132444569578                     22.995792189961314                       22.995792189961314               2                             2                           0                     0.79467429828966141  0.53470146487352799  0.26851952958163056        8.4958924633784519e-16              1.0619865579223066e-15       
                       3.1738513894445444e-17                          19                                          44425.994466267373                  -7.6730666332933849e-05                -2.5603302187960003e-19              3.1738513894445444e-17             22.871370889119735                     22.995792189961314                       22.995792189961314               3                             3                           0                     0.79470110170447628  0.53471887529099005  0.2685284477897541         3.3983569853513808e-15              4.4603435432736871e-15       
                       3.0737830605695708e-17                          25                                          43516.146816403219                  -7.3958125714850679e-05                -1.0006832887497398e-18              3.0737830605695708e-17             22.523078105057856                     22.995792189961314                       22.995792189961314               4                             4                           0                     0.79480616441842356  0.53478707406632331  0.26856336265114245        1.3593427941405523e-14              1.8053771484679213e-14       
                       2.708558656750204e-17                          31                                          40013.589867019531                  -6.3893480036915403e-05                -3.6522440381936666e-18              2.708558656750204e-17             21.234840025968147                     22.995792189961314                       22.995792189961314               5                             5                           0                     0.79519408744056919  0.5350382229084043   0.26869161168536099        5.4373711765622092e-14              7.2427483250301305e-14       
                       1.9731461595316328e-17                          37                                          31914.319080098641                  -4.3964974570405497e-05                -7.3541249721857122e-18              1.9731461595316328e-17             18.433087166388638                     22.995792189961314                       22.995792189961314               6                             6                           0                     0.79600221536917293  0.53555770350251675  0.2689540030813477         1.4176741264549191e-13              2.1419489589579321e-13       
                       1.4031531781448925e-17                          43                                          24348.552368250181                  -2.8990924345987615e-05                -5.6999298138674012e-18              1.4031531781448925e-17             15.995865069515435                     22.995792189961314                       22.995792189961314               7                             7                           0                     0.79666559326843134  0.53597994276861449  0.26916130584515996        1.6367114130027617e-13              3.7786603719606936e-13       
                       1.0105075540426745e-17                          49                                          18225.903366097555                  -1.9079464261102203e-05                -3.9264562410221821e-18              1.0105075540426745e-17             13.923999272138698                     22.995792189961314                       22.995792189961314               8                             8                           0                     0.79715443956030263  0.53628858403092128  0.26930558087350215        1.7204330300119113e-13              5.4990934019726053e-13       
                       7.3849809915404425e-18                          55                                          14370.099532667304                  -1.2536016841829265e-05                -2.7200945488863014e-18              7.3849809915404425e-18             12.838834835529191                     22.995792189961314                       22.995792189961314               9                             9                           0                     0.79751959498819802  0.536517800611652    0.2694049170829097         1.822047173225237e-13              7.3211405751978426e-13       
                       5.48414254773686e-18                          61                                          12333.0678435357                    -8.2195698846867926e-06                -1.9008384438035829e-18              5.48414254773686e-18             12.920906080421014                     22.995792189961314                       22.995792189961314               10                            10                          0                     0.79779733342426185  0.53669141272461285  0.2694717082142738         1.9490278617546935e-13              9.2701684369525363e-13       
# Table End
