# ODT 1.0
# Table Start
# Title: mmArchive Data Table, Wed Jun 16 19:00:15 EDT 2010
# Columns: {Oxs_RungeKuttaEvolve:evolve:Total energy} {Oxs_RungeKuttaEvolve:evolve:Energy calc count} {Oxs_RungeKuttaEvolve:evolve:Max dm/dt} Oxs_RungeKuttaEvolve:evolve:dE/dt {Oxs_RungeKuttaEvolve:evolve:Delta E} Oxs_UniformExchange::Energy {Oxs_UniformExchange::Max Spin Ang} {Oxs_UniformExchange::Stage Max Spin Ang} {Oxs_UniformExchange::Run Max Spin Ang} Oxs_TimeDriver::Iteration {Oxs_TimeDriver::Stage iteration} Oxs_TimeDriver::Stage Oxs_TimeDriver::mx   Oxs_TimeDriver::my   Oxs_TimeDriver::mz   {Oxs_TimeDriver::Last time step} {Oxs_TimeDriver::Simulation time}
# Units:                       J                                            {}                                        deg/ns                                 J/s                                  J                                J                              deg                                    deg                                      deg                              {}                            {}                          {}                   {}                   {}                   {}                          s                                 s                
                       7.3060257086596045e-18                          1                                           30741.32326124025                   -1.2972594683179018e-05                 0                                7.3060257086596045e-18             23.832877308341594                     23.832877308341594                       23.832877308341594               0                             0                           0                     0.79403137612560648  0.53451889903926741  0.26954572146864975        0                                0                         
                       7.3020180053328313e-18                          7                                           30731.746839478805                  -1.2964691103317716e-05                -4.0077033267729424e-21              7.3020180053328313e-18             23.825734230471852                     23.832877308341594                       23.832877308341594               1                             1                           0                     0.79403323370763645  0.53452017213025682  0.26954635826034584        3.0903028862059221e-16              3.0903028862059221e-16       
                       7.2860115931798073e-18                          13                                          30693.462109477616                  -1.293312703959866e-05                -1.6006412153023076e-20              7.2860115931798073e-18             23.797178999682448                     23.832877308341594                       23.832877308341594               2                             2                           0                     0.7940406539351671   0.53452525752627378  0.26954890201483872        1.2361211544823688e-15              1.5451514431029611e-15       
                       7.2223746288684595e-18                          19                                          30540.65873905447                   -1.2807671297651504e-05                -6.3636964311347572e-20              7.2223746288684595e-18             23.683231193574485                     23.832877308341594                       23.832877308341594               3                             3                           0                     0.79407017391696044  0.53454548809095537  0.26955902265936543        4.9444846179294754e-15              6.4896360610324369e-15       
                       6.9739362237428887e-18                          25                                          29934.828355955462                  -1.2318430426735342e-05                -2.4843840512557213e-19              6.9739362237428887e-18             23.231798558249885                     23.832877308341594                       23.832877308341594               4                             4                           0                     0.79418572200482163  0.53462466358437921  0.26959864936456635        1.9777938471717902e-14              2.6267574532750339e-14       
                       6.0712918994942776e-18                          31                                          27598.341685483774                  -1.054903235076985e-05                -9.0264432424861076e-19              6.0712918994942776e-18             21.495045618888035                     23.832877308341594                       23.832877308341594               5                             5                           0                     0.79461001647902474  0.53491521335706915  0.26974431973288709        7.9111753886871606e-14              1.0537932841962195e-13       
                       4.1693780124636736e-18                          37                                          21792.633842544532                  -6.8793567593444122e-06                -1.9019138870306036e-18              4.1693780124636736e-18             17.322650778507832                     23.832877308341594                       23.832877308341594               6                             6                           0                     0.79553482705029888  0.53554710556572716  0.27006254586384359        2.2176946185256231e-13              3.2714879027218423e-13       
                       2.785235136875281e-18                          43                                          16462.216092486698                  -4.2924386726678044e-06                -1.3841428755883929e-18              2.785235136875281e-18             14.763837290264535                     23.832877308341594                       23.832877308341594               7                             7                           0                     0.79625081065772063  0.53603439860021995  0.27030914659812794        2.5273156607376156e-13              5.7988035634594584e-13       
                       1.8778242279255382e-18                          49                                          12161.400517944337                  -2.6683019189060812e-06                -9.0741090894974279e-19              1.8778242279255382e-18             12.70113751768702                      23.832877308341594                       23.832877308341594               8                             8                           0                     0.79675760254374195  0.53637805886037326  0.27048337097817865        2.6610747939914816e-13              8.45987835745094e-13       
                       1.279758768445502e-18                          55                                          9301.0881913833418                  -1.6545238377750711e-06                -5.9806545948003606e-19              1.279758768445502e-18             10.67501808507088                      23.832877308341594                       23.832877308341594               9                             9                           0                     0.79712278541000581  0.53662510022027032  0.27060853240153149        2.8260347551096201e-13              1.128591311256056e-12       
                       8.8352080986787248e-19                          61                                          7488.9434239149668                  -1.0262858692667338e-06                -3.9623795857762958e-19              8.8352080986787248e-19             9.5612795612044952                     23.832877308341594                       23.832877308341594               10                            10                          0                     0.79739061265762778  0.53680607017395754  0.27070009975759474        3.0205944883858012e-13              1.4306507600946361e-12       
# Table End
