# ODT 1.0
# Table Start
# Title: mmArchive Data Table, Wed Jun 16 19:00:16 EDT 2010
# Columns: {Oxs_RungeKuttaEvolve:evolve:Total energy} {Oxs_RungeKuttaEvolve:evolve:Energy calc count} {Oxs_RungeKuttaEvolve:evolve:Max dm/dt} Oxs_RungeKuttaEvolve:evolve:dE/dt {Oxs_RungeKuttaEvolve:evolve:Delta E} Oxs_UniformExchange::Energy {Oxs_UniformExchange::Max Spin Ang} {Oxs_UniformExchange::Stage Max Spin Ang} {Oxs_UniformExchange::Run Max Spin Ang} Oxs_TimeDriver::Iteration {Oxs_TimeDriver::Stage iteration} Oxs_TimeDriver::Stage Oxs_TimeDriver::mx   Oxs_TimeDriver::my   Oxs_TimeDriver::mz   {Oxs_TimeDriver::Last time step} {Oxs_TimeDriver::Simulation time}
# Units:                       J                                            {}                                        deg/ns                                 J/s                                  J                                J                              deg                                    deg                                      deg                              {}                            {}                          {}                   {}                   {}                   {}                          s                                 s                
                       1.1736415036790953e-16                          1                                           33373.078049284464                  -0.0002232702527592101                 0                                1.1736415036790953e-16             24.266980752994527                     24.266980752994527                       24.266980752994527               0                             0                           0                     0.79517286415727995  0.53416496219096632  0.26796605751117142        0                                0                         
                       1.1730061326211605e-16                          7                                           33361.363821954998                  -0.00022313582259186313                -6.3537105793476747e-20              1.1730061326211605e-16             24.261759672086662                     24.266980752994527                       24.266980752994527               1                             1                           0                     0.79517466342089638  0.53416618620609901  0.26796667087176312        2.8466058737436973e-16              2.8466058737436973e-16       
                       1.1704684714620533e-16                          13                                          33314.534424008547                  -0.00022259895053796186                -2.5376611591073418e-19              1.1704684714620533e-16             24.240879320344188                     24.266980752994527                       24.266980752994527               2                             2                           0                     0.79518185081932657  0.53417107565546784  0.26796912105301435        1.1386423494974789e-15              1.4233029368718485e-15       
                       1.1603787262488627e-16                          19                                          33127.657277975137                  -0.00022046497981356687                -1.0089745213190414e-18              1.1603787262488627e-16             24.157421695502148                     24.266980752994527                       24.266980752994527               3                             3                           0                     0.79521044655933526  0.53419052811409218  0.2679788698121004         4.5545693979899156e-15              5.9778723348617638e-15       
                       1.120977104313847e-16                          25                                          32387.211532819987                  -0.00021214156374006461                -3.9401621935015712e-18              1.120977104313847e-16             23.824626464787233                     24.266980752994527                       24.266980752994527               4                             4                           0                     0.79532240846372493  0.53426668030826874  0.2680170467843897         1.8218277591959663e-14              2.4196149926821425e-14       
                       9.7765513432533692e-17                          31                                          29539.151401704781                  -0.00018201561906038932                -1.4332196998851013e-17              9.7765513432533692e-17             22.510930952947984                     24.266980752994527                       24.266980752994527               5                             5                           0                     0.79573398556597275  0.53454645575649407  0.26815748025992764        7.287311036783865e-14              9.7069260294660075e-14       
                       6.7815825611683077e-17                          37                                          23149.897018765576                  -0.00012009936540222755                -2.994968782085061e-17              6.7815825611683077e-17             19.048880903167074                     24.266980752994527                       24.266980752994527               6                             6                           0                     0.79662293928038697  0.53514960019814739  0.26846114309850688        2.0129882381886163e-13              2.9836808411352169e-13       
                       4.5448790132579914e-17                          43                                          18646.598404818291                  -7.5347729728896703e-05                -2.2367035479103163e-17              4.5448790132579914e-17             17.25647670599523                      24.266980752994527                       24.266980752994527               7                             7                           0                     0.7973276013149142   0.53562624316637564  0.268701804326268          2.3335043791324801e-13              5.317185220267697e-13       
                       3.0640290405699738e-17                          49                                          14830.396138311924                  -4.6993111733302334e-05                -1.4808499726880176e-17              3.0640290405699738e-17             15.770788738284523                     24.266980752994527                       24.266980752994527               8                             8                           0                     0.79782976914101356  0.53596501180078326  0.26887292631911391        2.4702492082170227e-13              7.7874344284847203e-13       
                       2.0839070280674566e-17                          55                                          11961.549462410303                  -2.9222190016821782e-05                -9.8012201250251714e-18              2.0839070280674566e-17             14.077305449892973                     24.266980752994527                       24.266980752994527               9                             9                           0                     0.79819157569001686  0.53620868997445226  0.26899585588468677        2.6262011805392268e-13              1.0413635609023947e-12       
                       1.4313426171236893e-17                          61                                          10388.05944687895                   -1.8147754462271653e-05                -6.5256441094376745e-18              1.4313426171236893e-17             12.407950822703677                     24.266980752994527                       24.266980752994527               10                            10                          0                     0.7984567159057816   0.53638712788576515  0.26908571665868036        2.8148855814370311e-13              1.3228521190460977e-12       
# Table End
