# ODT 1.0
# Table Start
# Title: mmArchive Data Table, Wed Jun 16 19:00:10 EDT 2010
# Columns: {Oxs_RungeKuttaEvolve:evolve:Total energy} {Oxs_RungeKuttaEvolve:evolve:Energy calc count} {Oxs_RungeKuttaEvolve:evolve:Max dm/dt} Oxs_RungeKuttaEvolve:evolve:dE/dt {Oxs_RungeKuttaEvolve:evolve:Delta E} Oxs_UniformExchange::Energy {Oxs_UniformExchange::Max Spin Ang} {Oxs_UniformExchange::Stage Max Spin Ang} {Oxs_UniformExchange::Run Max Spin Ang} Oxs_TimeDriver::Iteration {Oxs_TimeDriver::Stage iteration} Oxs_TimeDriver::Stage Oxs_TimeDriver::mx   Oxs_TimeDriver::my   Oxs_TimeDriver::mz   {Oxs_TimeDriver::Last time step} {Oxs_TimeDriver::Simulation time}
# Units:                       J                                            {}                                        deg/ns                                 J/s                                  J                                J                              deg                                    deg                                      deg                              {}                            {}                          {}                   {}                   {}                   {}                          s                                 s                
                      -1.0983208694949257e-14                          1                                           33373.078049284464                  -0.0002238992777089226                 0                               -1.0983208694949257e-14             24.266980752994527                     24.266980752994527                       24.266980752994527               0                             0                           0                     0.79517286415727995  0.53416496219096632  0.26796605751117142        0                                0                         
                      -1.0983272411043665e-14                          7                                           33361.363821954998                  -0.00022376435580284324                -6.3716094406911592e-20             -1.0983272411043665e-14             24.261759672086662                     24.266980752994527                       24.266980752994527               1                             1                           0                     0.79517466665682057  0.53416618840503649  0.26796667196318996        2.8466058737436973e-16              2.8466058737436973e-16       
                      -1.0983526891715845e-14                          13                                          33314.534424008547                  -0.00022322552054389495                -2.5448067217973638e-19             -1.0983526891715845e-14             24.240879320344188                     24.266980752994527                       24.266980752994527               2                             2                           0                     0.79518186697181836  0.53417108663136581  0.26796912650106286        1.1386423494974789e-15              1.4233029368718485e-15       
                      -1.0984538702210418e-14                          19                                          33127.657277975137                  -0.00022108375668738063                -1.0118104945735718e-18             -1.0984538702210418e-14             24.157421695502148                     24.266980752994527                       24.266980752994527               3                             3                           0                     0.79521051394637277  0.53419057389884905  0.26797889254200907        4.5545693979899156e-15              5.9778723348617638e-15       
                      -1.0988489859773653e-14                          25                                          32387.211532820216                  -0.00021273010354306478                -3.9511575632355595e-18             -1.0988489859773653e-14             23.824626464787233                     24.266980752994527                       24.266980752994527               4                             4                           0                     0.7953226740289665   0.53426686064794737  0.26801713637473012        1.8218277591959663e-14              2.4196149926821425e-14       
                      -1.1002860913281494e-14                          31                                          29539.151401938914                  -0.00018249699822380072                -1.4371053507840679e-17             -1.1002860913281494e-14             22.510930952947984                     24.266980752994527                       24.266980752994527               5                             5                           0                     0.79573494454982119  0.53454710563475683  0.26815780385926852        7.287311036783865e-14              9.7069260294660075e-14       
                      -1.1032884843747051e-14                          37                                          23149.897018765554                  -0.00012037428280142945                -3.0023930465556309e-17             -1.1032884843747051e-14             19.048880903167618                     24.266980752994527                       24.266980752994527               6                             6                           0                     0.79662517445681014  0.53515110679609312  0.26846189580903718        2.0129882381886249e-13              2.9836808411352255e-13       
                      -1.1055298902822768e-14                          43                                          18646.598404818062                  -7.5489848770242277e-05                -2.241405907571713e-17             -1.1055298902822768e-14             17.256476705995148                     24.266980752994527                       24.266980752994527               7                             7                           0                     0.79733056543525072  0.53562823141112681  0.26870279714977724        2.3335043791326054e-13              5.3171852202678313e-13       
                      -1.1070132526344174e-14                          49                                          14830.396133246071                  -4.7062576426562099e-05                -1.4833623521407113e-17             -1.1070132526344174e-14             15.770788735982782                     24.266980752994527                       24.266980752994527               8                             8                           0                     0.79783303543445949  0.53596719542730431  0.26887401324024568        2.4702492118730242e-13              7.7874344321408555e-13       
                      -1.1079946383227563e-14                          55                                          11961.549440566369                  -2.9253552842547772e-05                -9.8138568833891458e-18             -1.1079946383227563e-14             14.07730541891503                      24.266980752994527                       24.266980752994527               9                             9                           0                     0.79819490090838452  0.53621090818023864  0.26899695578279409        2.6262012243506536e-13              1.0413635656491509e-12       
                      -1.1086477825282263e-14                          61                                          10388.059374651033                  -1.8160073910353036e-05                -6.531442054698858e-18             -1.1086477825282263e-14             12.344421977178438                     24.266980752994527                       24.266980752994527               10                            10                          0                     0.79845996699743171  0.53638929305975469  0.26908678661898683        2.8148856480078351e-13              1.3228521304499344e-12       
# Table End
