# ODT 1.0
# Table Start
# Title: mmArchive Data Table, Wed Jun 16 19:00:34 EDT 2010
# Columns: {Oxs_RungeKuttaEvolve:evolve:Total energy} {Oxs_RungeKuttaEvolve:evolve:Energy calc count} {Oxs_RungeKuttaEvolve:evolve:Max dm/dt} Oxs_RungeKuttaEvolve:evolve:dE/dt {Oxs_RungeKuttaEvolve:evolve:Delta E} Oxs_UniformExchange::Energy {Oxs_UniformExchange::Max Spin Ang} {Oxs_UniformExchange::Stage Max Spin Ang} {Oxs_UniformExchange::Run Max Spin Ang} Oxs_TimeDriver::Iteration {Oxs_TimeDriver::Stage iteration} Oxs_TimeDriver::Stage Oxs_TimeDriver::mx   Oxs_TimeDriver::my   Oxs_TimeDriver::mz   {Oxs_TimeDriver::Last time step} {Oxs_TimeDriver::Simulation time}
# Units:                       J                                            {}                                        deg/ns                                 J/s                                  J                                J                              deg                                    deg                                      deg                              {}                            {}                          {}                   {}                   {}                   {}                          s                                 s                
                       5.1727839431570798e-17                          1                                           16228.685306901139                  -4.3818823856800034e-05                 0                                5.1727839431570798e-17             24.266980752994527                     24.266980752994527                       24.266980752994527               0                             0                           0                     0.79517286415727995  0.53416496219096632  0.26796605751117142        0                                0                         
                       5.170219632952251e-17                          7                                           16224.318362445638                  -4.3792512534729722e-05                -2.564310204828434e-20              5.170219632952251e-17             24.262274319571791                     24.266980752994527                       24.266980752994527               1                             1                           0                     0.79517449471950619  0.53416607208098654  0.26796661326923721        5.8538321622147594e-16              5.8538321622147594e-16       
                       5.1599777783529305e-17                          13                                          16206.858432988229                  -4.3687449253743416e-05                -1.0241854599320891e-19              5.1599777783529305e-17             24.243458752699258                     24.266980752994527                       24.266980752994527               2                             2                           0                     0.79518100895973443  0.53417050614622896  0.26796883359500628        2.3415328648859038e-15              2.9269160811073798e-15       
                       5.119255350494467e-17                          19                                          16137.144605787025                  -4.3270092751674028e-05                -4.0722427858463201e-19              5.119255350494467e-17             24.168358918474087                     24.266980752994527                       24.266980752994527               3                             3                           0                     0.7952069383145941   0.53418815485444771  0.2679776717698219         9.3661314595436151e-15              1.2293047540650996e-14       
                       4.9602106109525349e-17                          25                                          15860.323151981756                  -4.1646037851074577e-05                -1.5904473954193206e-18              4.9602106109525349e-17             23.870543430147627                     24.266980752994527                       24.266980752994527               4                             4                           0                     0.79530864764151721  0.53425737185181399  0.26801234549927372        3.746452583817446e-14              4.9757573378825461e-14       
                       4.381054242269749e-17                          31                                          14786.668508604311                  -3.5817439193474536e-05                -5.7915636868278581e-18              4.381054242269749e-17             22.926585980372085                     24.266980752994527                       24.266980752994527               5                             5                           0                     0.7956853862024641   0.53451358660123638  0.26814084759567058        1.4985810335269784e-13              1.996156767315233e-13       
                       3.1818658536538214e-17                          37                                          12168.95526381279                   -2.4252109177448292e-05                -1.1991883886159275e-17              3.1818658536538214e-17             20.889474775760405                     24.266980752994527                       24.266980752994527               6                             6                           0                     0.79650429193597372  0.53506935553945945  0.26842037770096533        4.0515124083839059e-13              6.0476691756991386e-13       
                       2.2614631459702109e-17                          43                                          9681.9703696605393                  -1.5975709258048518e-05                -9.2040270768361064e-18              2.2614631459702109e-17             19.272996636073312                     24.266980752994527                       24.266980752994527               7                             7                           0                     0.79718202081506295  0.53552781403852756  0.26865158394865141        4.6539886302279982e-13              1.0701657805927136e-12       
                       1.6063732484909786e-17                          49                                          7568.0024372042353                  -1.0522385925137063e-05                -6.5508989747923242e-18              1.6063732484909786e-17             18.282179098036121                     24.266980752994527                       24.266980752994527               8                             8                           0                     0.79770350034796156  0.53587958098273769  0.26882911113531655        5.0293798848263708e-13              1.5731037690753508e-12       
                       1.1364952765143449e-17                          55                                          5830.702850081153                   -6.9104252419635918e-06                -4.6987797197663375e-18              1.1364952765143449e-17             17.78435251074783                      24.266980752994527                       24.266980752994527               9                             9                           0                     0.79810731982821359  0.53615146364375721  0.26896624004793307        5.4847893031693349e-13              2.1215826993922843e-12       
                       7.9932478289248704e-18                          61                                          4881.2767285840637                  -4.518187121843818e-06                -3.3717049362185784e-18              7.9932478289248704e-18             17.659739546879994                     24.266980752994527                       24.266980752994527               10                            10                          0                     0.7984195960944378   0.53636148702242759  0.26907205814881502        6.005276468567344e-13              2.7221103462490189e-12       
# Table End
