# ODT 1.0
# Table Start
# Title: mmArchive Data Table, Wed Jun 16 19:00:32 EDT 2010
# Columns: {Oxs_RungeKuttaEvolve:evolve:Total energy} {Oxs_RungeKuttaEvolve:evolve:Energy calc count} {Oxs_RungeKuttaEvolve:evolve:Max dm/dt} Oxs_RungeKuttaEvolve:evolve:dE/dt {Oxs_RungeKuttaEvolve:evolve:Delta E} Oxs_UniformExchange::Energy {Oxs_UniformExchange::Max Spin Ang} {Oxs_UniformExchange::Stage Max Spin Ang} {Oxs_UniformExchange::Run Max Spin Ang} Oxs_TimeDriver::Iteration {Oxs_TimeDriver::Stage iteration} Oxs_TimeDriver::Stage Oxs_TimeDriver::mx   Oxs_TimeDriver::my   Oxs_TimeDriver::mz   {Oxs_TimeDriver::Last time step} {Oxs_TimeDriver::Simulation time}
# Units:                       J                                            {}                                        deg/ns                                 J/s                                  J                                J                              deg                                    deg                                      deg                              {}                            {}                          {}                   {}                   {}                   {}                          s                                 s                
                       1.470372258389926e-16                          1                                           42145.82191659946                   -0.00035981423916349572                 0                                1.470372258389926e-16             24.266980752994527                     24.266980752994527                       24.266980752994527               0                             0                           0                     0.79517286415727995  0.53416496219096632  0.26796605751117142        0                                0                         
                       1.4695612406587138e-16                          7                                           42130.737579897068                  -0.00035959095212036244                -8.1101773121204318e-20              1.4695612406587138e-16             24.261888492576706                     24.266980752994527                       24.266980752994527               1                             1                           0                     0.79517464955069772  0.53416617563216984  0.26796666633515948        2.2540787124282776e-16              2.2540787124282776e-16       
                       1.4663221996581239e-16                          13                                          42070.433886358718                  -0.00035869926640412064                -3.2390410005898605e-19              1.4663221996581239e-16             24.241522142699395                     24.266980752994527                       24.266980752994527               2                             2                           0                     0.79518178136587914  0.53417102271882089  0.26796909833244159        9.0163148497131105e-16              1.1270393562141388e-15       
                       1.4534461462616921e-16                          19                                          41829.758121496852                  -0.00035515581433398198                -1.2876053396431844e-18              1.4534461462616921e-16             24.160100146238328                     24.266980752994527                       24.266980752994527               3                             3                           0                     0.79521015316072474  0.53419030467247786  0.26797877376411428        3.6065259398852442e-15              4.7335652960993828e-15       
                       1.4032004681237194e-16                          25                                          40875.713227024957                  -0.00034134780845283504                -5.0245678137972862e-18              1.4032004681237194e-16             23.835127887181979                     24.266980752994527                       24.266980752994527               4                             4                           0                     0.7953211951799215   0.53426575909887175  0.26801664854440527        1.4426103759540977e-14              1.915966905564036e-14       
                       1.220948025841454e-16                          31                                          37458.44634427844                   -0.00029155335201131469                -1.8225244228226523e-17              1.220948025841454e-16             22.548020306630914                     24.266980752994527                       24.266980752994527               5                             5                           0                     0.79572880469735985  0.53454255607862577  0.26815576470407199        5.7704415038163907e-14              7.6864084093804268e-14       
                       8.6843327348793091e-17                          37                                          30027.549044268246                  -0.00019696528269228422                -3.5251475235352305e-17              8.6843327348793091e-17             19.402552151439568                     24.266980752994527                       24.266980752994527               6                             6                           0                     0.79654539667589297  0.53509597179010959  0.26843472707133453        1.4626524620410626e-13              2.2312933029791052e-13       
                       6.0075185026011787e-17                          43                                          24383.049795615203                  -0.00012752528767324167                -2.676814232278131e-17              6.0075185026011787e-17             17.867540455960782                     24.266980752994527                       24.266980752994527               7                             7                           0                     0.79720435947648915  0.53554107047516819  0.26865971344865563        1.6778038626774821e-13              3.9090971656565873e-13       
                       4.1745487688144373e-17                          49                                          19616.527280018207                  -8.2035068158201288e-05                -1.8329697337867411e-17              4.1745487688144373e-17             16.61987071742109                      24.266980752994527                       24.266980752994527               8                             8                           0                     0.79769019080180492  0.5358681660280995   0.2688250939012588         1.7805996995355671e-13              5.6896968651921549e-13       
                       2.9252056385928222e-17                          55                                          15989.084204475294                  -5.2664422426951508e-05                -1.2493431302216154e-17              2.9252056385928222e-17             15.120214286164742                     24.266980752994527                       24.266980752994527               9                             9                           0                     0.79805044380525036  0.53611014832444104  0.26894716906571003        1.8893536183242407e-13              7.5790504835163949e-13       
                       2.0692983445992438e-17                          61                                          14248.882402667175                  -3.3805503629607587e-05                -8.5590729399357843e-18              2.0692983445992438e-17             13.450795457255589                     24.266980752994527                       24.266980752994527               10                            10                          0                     0.7983215491154565   0.53629204627462923  0.26903857935616271        2.0174416081710156e-13              9.5964920916874112e-13       
# Table End
