# ODT 1.0
# Table Start
# Title: mmArchive Data Table, Wed Jun 16 19:00:20 EDT 2010
# Columns: {Oxs_RungeKuttaEvolve:evolve:Total energy} {Oxs_RungeKuttaEvolve:evolve:Energy calc count} {Oxs_RungeKuttaEvolve:evolve:Max dm/dt} Oxs_RungeKuttaEvolve:evolve:dE/dt {Oxs_RungeKuttaEvolve:evolve:Delta E} Oxs_UniformExchange::Energy {Oxs_UniformExchange::Max Spin Ang} {Oxs_UniformExchange::Stage Max Spin Ang} {Oxs_UniformExchange::Run Max Spin Ang} Oxs_TimeDriver::Iteration {Oxs_TimeDriver::Stage iteration} Oxs_TimeDriver::Stage Oxs_TimeDriver::mx   Oxs_TimeDriver::my   Oxs_TimeDriver::mz   {Oxs_TimeDriver::Last time step} {Oxs_TimeDriver::Simulation time}
# Units:                       J                                            {}                                        deg/ns                                 J/s                                  J                                J                              deg                                    deg                                      deg                              {}                            {}                          {}                   {}                   {}                   {}                          s                                 s                
                       9.2579645707184707e-17                          1                                           197936.49589374947                  -0.00045966403782939021                 0                                9.2579645707184707e-17             24.949551921938447                     24.949551921938447                       24.949551921938447               0                             0                           0                     0.79542215121752646  0.53393596753850359  0.26778137951727182        0                                0                         
                       9.2559269018918914e-17                          7                                           197841.10209187664                  -0.00045949413303843364                -2.0376688265789011e-20              9.2559269018918914e-17             24.948318860874053                     24.949551921938447                       24.949551921938447               1                             1                           0                     0.79542268367484636  0.53393634083413977  0.26778160580276983        4.7995191372385995e-17              4.7995191372385995e-17       
                       9.2477844605105556e-17                          13                                          197459.97651181094                  -0.00045881554066871521                -8.1424413813363488e-20              9.2477844605105556e-17             24.94338621609187                      24.949551921938447                       24.949551921938447               2                             2                           0                     0.79542481211720673  0.53393783287422902  0.26778251055329838        1.9198076548954398e-16              2.3997595686192995e-16       
                       9.2153458514782851e-17                          19                                          195942.65186963836                  -0.00045611750853545493                -3.2438609032269744e-19              9.2153458514782851e-17             24.923649275245388                     24.949551921938447                       24.949551921938447               3                             3                           0                     0.79543330377003052  0.53394378279861832  0.26778612329418133        7.6792306195817592e-16              1.0078990188201059e-15       
                       9.0876529848821235e-17                          25                                          189987.1413359349                   -0.00044558103415020812                -1.2769286659616249e-18              9.0876529848821235e-17             24.844602705238966                     24.949551921938447                       24.949551921938447               4                             4                           0                     0.79546692119285445  0.53396729348610039  0.26780047420800485        3.0716922478327037e-15              4.0795912666528098e-15       
                       8.6076463016030113e-17                          31                                          167916.61129294275                  -0.00040718323851598694                -4.8000668327911169e-18              8.6076463016030113e-17             24.527024638131575                     24.949551921938447                       24.949551921938447               5                             5                           0                     0.79559608740247545  0.53405688723346423  0.26785628344801221        1.2286768991330815e-14              1.6366360257983624e-14       
                       8.0148657718558599e-17                          37                                          153727.65161229891                  -0.0003624165636556056                -5.9278052974715195e-18              8.0148657718558599e-17             24.08536928054918                      24.949551921938447                       24.949551921938447               6                             6                           0                     0.79576199549392479  0.53416991142730186  0.26792924854181199        1.6983299751536302e-14              3.3349660009519925e-14       
                       7.45747762672781e-17                          43                                          141594.23430409178                  -0.00032297713162723191                -5.5738814512804873e-18              7.45747762672781e-17             23.613019124163184                     24.949551921938447                       24.949551921938447               7                             7                           0                     0.79592478544466683  0.53427817007560263  0.2680017268405635         1.8100262646478545e-14              5.1449922655998471e-14       
                       6.9433780017207138e-17                          49                                          129832.09939612048                  -0.00028881976505204667                -5.1409962500709633e-18              6.9433780017207138e-17             23.121642338482197                     24.949551921938447                       24.949551921938447               8                             8                           0                     0.79608094345045999  0.53437936456954882  0.2680715087048785         1.884191488516638e-14              7.0291837541164854e-14       
                       6.4661037795612643e-17                          55                                          118451.36577424518                  -0.00025893153845512636                -4.7727422215945014e-18              6.4661037795612643e-17             22.612127726152888                     24.949551921938447                       24.949551921938447               9                             9                           0                     0.79623108956704158  0.53447426161252487  0.26813836129203683        1.9639721793413467e-14              8.9931559334578318e-14       
                       6.0198223043770989e-17                          61                                          107444.74285319098                  -0.00023248054868591384                -4.4628147518416505e-18              6.0198223043770989e-17             22.084786947087444                     24.949551921938447                       24.949551921938447               10                            10                          0                     0.79637589350018623  0.53456379167240398  0.26820229162798853        2.053487146090481e-14              1.1046643079548313e-13       
# Table End
