# ODT 1.0
# Table Start
# Title: mmArchive Data Table, Wed Jun 16 19:00:02 EDT 2010
# Columns: {Oxs_RungeKuttaEvolve:evolve:Total energy} {Oxs_RungeKuttaEvolve:evolve:Energy calc count} {Oxs_RungeKuttaEvolve:evolve:Max dm/dt} Oxs_RungeKuttaEvolve:evolve:dE/dt {Oxs_RungeKuttaEvolve:evolve:Delta E} Oxs_UniformExchange::Energy {Oxs_UniformExchange::Max Spin Ang} {Oxs_UniformExchange::Stage Max Spin Ang} {Oxs_UniformExchange::Run Max Spin Ang} Oxs_TimeDriver::Iteration {Oxs_TimeDriver::Stage iteration} Oxs_TimeDriver::Stage Oxs_TimeDriver::mx   Oxs_TimeDriver::my   Oxs_TimeDriver::mz   {Oxs_TimeDriver::Last time step} {Oxs_TimeDriver::Simulation time}
# Units:                       J                                            {}                                        deg/ns                                 J/s                                  J                                J                              deg                                    deg                                      deg                              {}                            {}                          {}                   {}                   {}                   {}                          s                                 s                
                       7.3944762073410245e-18                          1                                           30741.32326124025                   -1.3259743461261368e-05                 0                                7.3944762073410245e-18             23.832877308341594                     23.832877308341594                       23.832877308341594               0                             0                           0                     0.79403137612560648  0.53451889903926741  0.26954572146864975        0                                0                         
                       7.3903798046974403e-18                          7                                           30731.746839478805                  -1.3251591700484212e-05                -4.0964026435852064e-21              7.3903798046974403e-18             23.825734230471852                     23.832877308341594                       23.832877308341594               1                             1                           0                     0.79403325618535181  0.53452018769374088  0.26954636577402352        3.0903028862059221e-16              3.0903028862059221e-16       
                       7.3740193612879957e-18                          13                                          30693.462109477616                  -1.3219036947603236e-05                -1.6360443409444262e-20              7.3740193612879957e-18             23.797178999682448                     23.832877308341594                       23.832877308341594               2                             2                           0                     0.79404076610098551  0.53452533518662226  0.26954893950927183        1.2361211544823688e-15              1.5451514431029611e-15       
                       7.3089784579699985e-18                          19                                          30540.65873905447                   -1.3089650822187829e-05                -6.5040903317997285e-20              7.3089784579699985e-18             23.683231193574485                     23.832877308341594                       23.832877308341594               3                             3                           0                     0.79407064129226579  0.5345458116408478   0.26955917890029996        4.9444846179294754e-15              6.4896360610324369e-15       
                       7.0551148575471348e-18                          25                                          29934.828355955462                  -1.2585195121152605e-05                -2.5386360042286299e-19              7.0551148575471348e-18             23.231798558249885                     23.832877308341594                       23.832877308341594               4                             4                           0                     0.79418755486588233  0.53462593168435713  0.26959926219328112        1.9777938471717902e-14              2.6267574532750339e-14       
                       6.1335542026464855e-18                          31                                          27598.341685483774                  -1.0762367642422583e-05                -9.2156065490064954e-19              6.1335542026464855e-18             21.495045618888032                     23.832877308341594                       23.832877308341594               5                             5                           0                     0.79461650541501083  0.53491969288229912  0.26974649015878194        7.9111753886871606e-14              1.0537932841962195e-13       
                       4.1966583073830512e-18                          37                                          21792.633842544532                  -6.9915449893429936e-06                -1.9368958952634346e-18              4.1966583073830512e-18             17.322650778507832                     23.832877308341594                       23.832877308341594               6                             6                           0                     0.7955492042963771   0.53555698355410075  0.2700673493821083         2.2176946185256231e-13              3.2714879027218423e-13       
                       2.7926733357226019e-18                          43                                          16462.216092486698                  -4.3442408049438971e-06                -1.4039849716604493e-18              2.7926733357226019e-18             14.763837290264535                     23.832877308341594                       23.832877308341594               7                             7                           0                     0.79626858440592929  0.53604658794426019  0.27031507539461735        2.5273156607376156e-13              5.7988035634594584e-13       
                       1.8760689064084696e-18                          49                                          12161.400517944403                  -2.6894319634426815e-06                -9.1660442931413257e-19              1.8760689064084696e-18             12.701137517687055                     23.832877308341594                       23.832877308341594               8                             8                           0                     0.79677585877122736  0.53639059640049014  0.27048947277919855        2.6610747939914342e-13              8.4598783574508915e-13       
                       1.2743868150341865e-18                          55                                          9291.3656468557947                  -1.661019930472195e-06                -6.0168209137428286e-19              1.2743868150341865e-18             10.675018085071981                     23.832877308341594                       23.832877308341594               9                             9                           0                     0.79714011547072383  0.53663703332917589  0.2706143632158815         2.826034755108055e-13              1.1285913112558946e-12       
                       8.7729244284161492e-19                          61                                          7488.943423998674                   -1.026475966439527e-06                -3.9709437219257162e-19              8.7729244284161492e-19             9.5612795604713572                     23.832877308341594                       23.832877308341594               10                            10                          0                     0.79740643913395037  0.5368169920160818   0.27070547347830698        3.020594488214712e-13              1.4306507600773659e-12       
# Table End
