# ODT 1.0
# Table Start
# Title: mmArchive Data Table, Wed Jun 16 19:00:13 EDT 2010
# Columns: {Oxs_RungeKuttaEvolve:evolve:Total energy} {Oxs_RungeKuttaEvolve:evolve:Energy calc count} {Oxs_RungeKuttaEvolve:evolve:Max dm/dt} Oxs_RungeKuttaEvolve:evolve:dE/dt {Oxs_RungeKuttaEvolve:evolve:Delta E} Oxs_UniformExchange::Energy {Oxs_UniformExchange::Max Spin Ang} {Oxs_UniformExchange::Stage Max Spin Ang} {Oxs_UniformExchange::Run Max Spin Ang} Oxs_TimeDriver::Iteration {Oxs_TimeDriver::Stage iteration} Oxs_TimeDriver::Stage Oxs_TimeDriver::mx   Oxs_TimeDriver::my   Oxs_TimeDriver::mz   {Oxs_TimeDriver::Last time step} {Oxs_TimeDriver::Simulation time}
# Units:                       J                                            {}                                        deg/ns                                 J/s                                  J                                J                              deg                                    deg                                      deg                              {}                            {}                          {}                   {}                   {}                   {}                          s                                 s                
                       1.180196104949522e-16                          1                                           34050.84374295958                   -0.00022730811485245265                 0                                1.180196104949522e-16             24.266980752994527                     24.266980752994527                       24.266980752994527               0                             0                           0                     0.79517286415727995  0.53416496219096632  0.26796605751117142        0                                0                         
                       1.1795621190191809e-16                          7                                           34038.423149134091                  -0.00022717097039209427                -6.3398593034099025e-20              1.1795621190191809e-16             24.261807788323971                     24.266980752994527                       24.266980752994527               1                             1                           0                     0.79517464413550054  0.53416617316121262  0.26796666430042676        2.7899455507513638e-16              2.7899455507513638e-16       
                       1.1770299978568436e-16                          13                                          33988.777174525676                  -0.00022662327566897583                -2.5321211623375168e-19              1.1770299978568436e-16             24.241120066893405                     24.266980752994527                       24.266980752994527               2                             2                           0                     0.79518175453389506  0.53417101052652094  0.26796908824415822        1.1159782203005455e-15              1.3949727753756819e-15       
                       1.1669623990788184e-16                          19                                          33790.774904854494                  -0.00022444656043738156                -1.006759877802506e-18              1.1669623990788184e-16             24.158435591671015                     24.266980752994527                       24.266980752994527               3                             3                           0                     0.795210044534571    0.53419025617421056  0.26797873281707874        4.4639128812021821e-15              5.8588856565778638e-15       
                       1.1276488218363211e-16                          25                                          33008.021847848882                  -0.00021596054074871269                -3.9313577242497334e-18              1.1276488218363211e-16             23.828773878232887                     24.266980752994527                       24.266980752994527               4                             4                           0                     0.79532081938800292  0.53426560536226031  0.26801650518008407        1.7855651524808728e-14              2.3714537181386591e-14       
                       9.8465353909713e-17                          31                                          30021.911223768355                  -0.00018529758745758481                -1.429952827391912e-17              9.8465353909713e-17             22.528190320712625                     24.266980752994527                       24.266980752994527               5                             5                           0                     0.79572820280341638  0.53454254375051369  0.26815550784272896        7.1422606099234913e-14              9.5137143280621505e-14       
                       6.9174044369560665e-17                          37                                          23622.590918729642                  -0.00012373889311251363                -2.9291309540152322e-17              6.9174044369560665e-17             19.187757414913147                     24.266980752994527                       24.266980752994527               6                             6                           0                     0.79659103735421544  0.53512800732317067  0.26845024425944669        1.9233346234411632e-13              2.8747060562473782e-13       
                       4.683817626852759e-17                          43                                          19011.34975409499                   -7.8465689701513649e-05                -2.2335868101033076e-17              4.683817626852759e-17             17.324052752691916                     24.266980752994527                       24.266980752994527               7                             7                           0                     0.79728889323605812  0.53560010584850992  0.2686885905668116         2.2507347370013868e-13              5.1254407932487646e-13       
                       3.173899271991618e-17                          49                                          15153.876434113237                  -4.9230771774178685e-05                -1.509918354861141e-17              3.173899271991618e-17             15.874326369880222                     24.266980752994527                       24.266980752994527               8                             8                           0                     0.79779602244853709  0.53594226347414087  0.26886142732748691        2.412070367703647e-13              7.537511160952412e-13       
                       2.162536745390787e-17                          55                                          12106.29821450125                   -3.0700065390587172e-05                -1.0113625266008311e-17              2.162536745390787e-17             14.206934097354345                     24.266980752994527                       24.266980752994527               9                             9                           0                     0.79816529382278989  0.53619098629481343  0.26898691394303786        2.5833729095916096e-13              1.0120884070544021e-12       
                       1.4853107755554521e-17                          61                                          10582.597094211835                  -1.9083809892202009e-05                -6.772259698353351e-18              1.4853107755554521e-17             12.439464380570962                     24.266980752994527                       24.266980752994527               10                            10                          0                     0.79843711445979448  0.53637392365376091  0.26907904981529407        2.7793519824636754e-13              1.2900236053007697e-12       
# Table End
