# ODT 1.0
# Table Start
# Title: mmArchive Data Table, Wed Jun 16 19:00:30 EDT 2010
# Columns: {Oxs_RungeKuttaEvolve:evolve:Total energy} {Oxs_RungeKuttaEvolve:evolve:Energy calc count} {Oxs_RungeKuttaEvolve:evolve:Max dm/dt} Oxs_RungeKuttaEvolve:evolve:dE/dt {Oxs_RungeKuttaEvolve:evolve:Delta E} Oxs_UniformExchange::Energy {Oxs_UniformExchange::Max Spin Ang} {Oxs_UniformExchange::Stage Max Spin Ang} {Oxs_UniformExchange::Run Max Spin Ang} Oxs_TimeDriver::Iteration {Oxs_TimeDriver::Stage iteration} Oxs_TimeDriver::Stage Oxs_TimeDriver::mx   Oxs_TimeDriver::my   Oxs_TimeDriver::mz   {Oxs_TimeDriver::Last time step} {Oxs_TimeDriver::Simulation time}
# Units:                       J                                            {}                                        deg/ns                                 J/s                                  J                                J                              deg                                    deg                                      deg                              {}                            {}                          {}                   {}                   {}                   {}                          s                                 s                
                       3.830380388717172e-17                          1                                           44728.669994467033                  -9.2972947332345494e-05                 0                                3.830380388717172e-17             22.995792189961314                     22.995792189961314                       22.995792189961314               0                             0                           0                     0.79501472213323454  0.53431484196122248  0.26841922003953628        0                                0                         
                       3.8284519311904874e-17                          7                                           44714.280302711639                  -9.2919477733056615e-05                -1.9284575266846108e-20              3.8284519311904874e-17             22.99051185038503                      22.995792189961314                       22.995792189961314               1                             1                           0                     0.7950164300854321   0.53431591147523205  0.26841974623875975        2.1239173892662484e-16              2.1239173892662484e-16       
                       3.8207492951211648e-17                          13                                          44656.754568158911                  -9.2705926261654753e-05                -7.7026360693221219e-20              3.8207492951211648e-17             22.969392608551065                     22.995792189961314                       22.995792189961314               2                             2                           0                     0.79502325320188716  0.53432018389419522  0.26842184805815078        8.4956695570649936e-16              1.0619586946331241e-15       
                       3.7901170863324779e-17                          19                                          44427.180513366256                  -9.1856928368275263e-05                -3.0632208788687025e-19              3.7901170863324779e-17             22.884949892982991                     22.995792189961314                       22.995792189961314               3                             3                           0                     0.79505040713985753  0.53433718374184314  0.26843020788974931        3.3982678228259975e-15              4.4602265174591218e-15       
                       3.6703930434989426e-17                          25                                          43517.368324911979                  -8.8542822980077919e-05                -1.1972404283353511e-18              3.6703930434989426e-17             22.547751740129925                     22.995792189961314                       22.995792189961314               4                             4                           0                     0.79515684118058916  0.53440376894344943  0.26846290034720227        1.359307129130399e-14              1.8053297808763111e-14       
                       3.2334237289722742e-17                          31                                          40014.921885344338                  -7.6508941125664765e-05                -4.3696931452666845e-18              3.2334237289722742e-17             21.273161784646998                     22.995792189961314                       22.995792189961314               5                             5                           0                     0.79554978610200933  0.53464888564880031  0.26858246726399959        5.4372285165215959e-14              7.242558297397907e-14       
                       2.3543305409499464e-17                          37                                          31923.758386398818                  -5.2684780585117986e-05                -8.7909318802232811e-18              2.3543305409499464e-17             18.494862102158031                     22.995792189961314                       22.995792189961314               6                             6                           0                     0.79636741926389332  0.53515461358629679  0.26882400061724671        1.4161144659653265e-13              2.1403702957051172e-13       
                       1.6771163062695032e-17                          43                                          24416.698256899912                  -3.4870055063400796e-05                -6.7721423468044313e-18              1.6771163062695032e-17             16.313621298332428                     22.995792189961314                       22.995792189961314               7                             7                           0                     0.79703450789870756  0.53556117901917821  0.26901016303737091        1.621955953104955e-13              3.7623262488100722e-13       
                       1.2062289866723674e-17                          49                                          18287.729394238246                  -2.2953152077636805e-05                -4.7088731959713573e-18              1.2062289866723674e-17             14.694278253953602                     22.995792189961314                       22.995792189961314               8                             8                           0                     0.79753149109453558  0.53585835764028733  0.26913790991826364        1.7173827684056789e-13              5.4797090172157505e-13       
                       8.791237576367733e-18                          55                                          15293.726450514991                  -1.5058941102902404e-05                -3.2710522903559408e-18              8.791237576367733e-18             12.860721380654176                     22.995792189961314                       22.995792189961314               9                             9                           0                     0.79790536302592141  0.53607667081527854  0.26922305325168699        1.824155646924788e-13              7.3038646641405393e-13       
                       6.512137668699408e-18                          61                                          12694.56446395736                   -9.8654856525434943e-06                -2.2790999076683251e-18              6.512137668699408e-18             11.799179514970072                     22.995792189961314                       22.995792189961314               10                            10                          0                     0.79819077412315176  0.5362387888112905   0.26927679736054078        1.9462864700223231e-13              9.2501511341628614e-13       
# Table End
